V -t * -v 1.0a5 -a 0
A -t * -n 1 -p 0 -o 0x7fffffff -c 30 -a 1
A -t * -h 1 -m 1073741823 -s 0
c -t * -i 1 -n blue
n -t * -a 4 -s 4 -S UP -v circle -c black -i black
n -t * -a 0 -s 0 -S UP -v circle -c black -i black
n -t * -a 1 -s 1 -S UP -v circle -c black -i black
n -t * -a 2 -s 2 -S UP -v circle -c black -i black
n -t * -a 3 -s 3 -S UP -v circle -c black -i black
X -t * -n 5 -r 0.5Mb -D 40ms -o left
L -t * -s 5 -d 0 -o up
L -t * -s 5 -d 1 -o down
L -t * -s 5 -d 2 -o up
L -t * -s 5 -d 3 -o down
L -t * -s 5 -d 4 -o up
h -t 0.1 -s 1 -d 5 -p tcp -e 40 -c 1 -i 0 -a 1 -x {1.0 3.0 0 ------- null}
+ -t 0.14 -s 1 -d 5 -p tcp -e 40 -c 1 -i 0 -a 1 -x {1.0 3.0 0 ------- null}
- -t 0.14 -s 1 -d 5 -p tcp -e 40 -c 1 -i 0 -a 1 -x {1.0 3.0 0 ------- null}
h -t 0.14 -s 1 -d 5 -p tcp -e 40 -c 1 -i 0 -a 1 -x {1.0 3.0 -1 ------- null}
d -t 0.140004 -s 4 -d 5 -p tcp -e 40 -c 1 -i 0 -a 1 -x {1.0 3.0 0 ------- null}
d -t 0.140004 -s 2 -d 5 -p tcp -e 40 -c 1 -i 0 -a 1 -x {1.0 3.0 0 ------- null}
d -t 0.140004 -s 0 -d 5 -p tcp -e 40 -c 1 -i 0 -a 1 -x {1.0 3.0 0 ------- null}
r -t 0.180004 -s 5 -d 3 -p tcp -e 40 -c 1 -i 0 -a 1 -x {1.0 3.0 0 ------- null}
h -t 0.180004 -s 3 -d 5 -p ack -e 40 -c 1 -i 1 -a 1 -x {3.0 1.0 0 ------- null}
+ -t 0.220004 -s 3 -d 5 -p ack -e 40 -c 1 -i 1 -a 1 -x {3.0 1.0 0 ------- null}
- -t 0.220004 -s 3 -d 5 -p ack -e 40 -c 1 -i 1 -a 1 -x {3.0 1.0 0 ------- null}
h -t 0.220004 -s 3 -d 5 -p ack -e 40 -c 1 -i 1 -a 1 -x {3.0 1.0 -1 ------- null}
d -t 0.220008 -s 4 -d 5 -p ack -e 40 -c 1 -i 1 -a 1 -x {3.0 1.0 0 ------- null}
d -t 0.220008 -s 2 -d 5 -p ack -e 40 -c 1 -i 1 -a 1 -x {3.0 1.0 0 ------- null}
d -t 0.220008 -s 0 -d 5 -p ack -e 40 -c 1 -i 1 -a 1 -x {3.0 1.0 0 ------- null}
r -t 0.260008 -s 5 -d 1 -p ack -e 40 -c 1 -i 1 -a 1 -x {3.0 1.0 0 ------- null}
h -t 0.260008 -s 1 -d 5 -p tcp -e 1040 -c 1 -i 2 -a 1 -x {1.0 3.0 1 ------- null}
h -t 0.260008 -s 1 -d 5 -p tcp -e 1040 -c 1 -i 3 -a 1 -x {1.0 3.0 2 ------- null}
+ -t 0.300008 -s 1 -d 5 -p tcp -e 1040 -c 1 -i 2 -a 1 -x {1.0 3.0 1 ------- null}
- -t 0.300008 -s 1 -d 5 -p tcp -e 1040 -c 1 -i 2 -a 1 -x {1.0 3.0 1 ------- null}
h -t 0.300008 -s 1 -d 5 -p tcp -e 1040 -c 1 -i 2 -a 1 -x {1.0 3.0 -1 ------- null}
+ -t 0.300008 -s 1 -d 5 -p tcp -e 1040 -c 1 -i 3 -a 1 -x {1.0 3.0 2 ------- null}
d -t 0.300012 -s 4 -d 5 -p tcp -e 1040 -c 1 -i 2 -a 1 -x {1.0 3.0 1 ------- null}
d -t 0.300012 -s 2 -d 5 -p tcp -e 1040 -c 1 -i 2 -a 1 -x {1.0 3.0 1 ------- null}
d -t 0.300012 -s 0 -d 5 -p tcp -e 1040 -c 1 -i 2 -a 1 -x {1.0 3.0 1 ------- null}
- -t 0.304424 -s 1 -d 5 -p tcp -e 1040 -c 1 -i 3 -a 1 -x {1.0 3.0 2 ------- null}
h -t 0.304424 -s 1 -d 5 -p tcp -e 1040 -c 1 -i 3 -a 1 -x {1.0 3.0 -1 ------- null}
d -t 0.304428 -s 4 -d 5 -p tcp -e 1040 -c 1 -i 3 -a 1 -x {1.0 3.0 2 ------- null}
d -t 0.304428 -s 2 -d 5 -p tcp -e 1040 -c 1 -i 3 -a 1 -x {1.0 3.0 2 ------- null}
d -t 0.304428 -s 0 -d 5 -p tcp -e 1040 -c 1 -i 3 -a 1 -x {1.0 3.0 2 ------- null}
r -t 0.340012 -s 5 -d 3 -p tcp -e 1040 -c 1 -i 2 -a 1 -x {1.0 3.0 1 ------- null}
h -t 0.340012 -s 3 -d 5 -p ack -e 40 -c 1 -i 4 -a 1 -x {3.0 1.0 1 ------- null}
r -t 0.344428 -s 5 -d 3 -p tcp -e 1040 -c 1 -i 3 -a 1 -x {1.0 3.0 2 ------- null}
h -t 0.344428 -s 3 -d 5 -p ack -e 40 -c 1 -i 5 -a 1 -x {3.0 1.0 2 ------- null}
+ -t 0.380012 -s 3 -d 5 -p ack -e 40 -c 1 -i 4 -a 1 -x {3.0 1.0 1 ------- null}
- -t 0.380012 -s 3 -d 5 -p ack -e 40 -c 1 -i 4 -a 1 -x {3.0 1.0 1 ------- null}
h -t 0.380012 -s 3 -d 5 -p ack -e 40 -c 1 -i 4 -a 1 -x {3.0 1.0 -1 ------- null}
d -t 0.380016 -s 4 -d 5 -p ack -e 40 -c 1 -i 4 -a 1 -x {3.0 1.0 1 ------- null}
d -t 0.380016 -s 2 -d 5 -p ack -e 40 -c 1 -i 4 -a 1 -x {3.0 1.0 1 ------- null}
d -t 0.380016 -s 0 -d 5 -p ack -e 40 -c 1 -i 4 -a 1 -x {3.0 1.0 1 ------- null}
+ -t 0.384428 -s 3 -d 5 -p ack -e 40 -c 1 -i 5 -a 1 -x {3.0 1.0 2 ------- null}
- -t 0.384428 -s 3 -d 5 -p ack -e 40 -c 1 -i 5 -a 1 -x {3.0 1.0 2 ------- null}
h -t 0.384428 -s 3 -d 5 -p ack -e 40 -c 1 -i 5 -a 1 -x {3.0 1.0 -1 ------- null}
d -t 0.384432 -s 4 -d 5 -p ack -e 40 -c 1 -i 5 -a 1 -x {3.0 1.0 2 ------- null}
d -t 0.384432 -s 2 -d 5 -p ack -e 40 -c 1 -i 5 -a 1 -x {3.0 1.0 2 ------- null}
d -t 0.384432 -s 0 -d 5 -p ack -e 40 -c 1 -i 5 -a 1 -x {3.0 1.0 2 ------- null}
r -t 0.420016 -s 5 -d 1 -p ack -e 40 -c 1 -i 4 -a 1 -x {3.0 1.0 1 ------- null}
h -t 0.420016 -s 1 -d 5 -p tcp -e 1040 -c 1 -i 6 -a 1 -x {1.0 3.0 3 ------- null}
h -t 0.420016 -s 1 -d 5 -p tcp -e 1040 -c 1 -i 7 -a 1 -x {1.0 3.0 4 ------- null}
r -t 0.424432 -s 5 -d 1 -p ack -e 40 -c 1 -i 5 -a 1 -x {3.0 1.0 2 ------- null}
h -t 0.424432 -s 1 -d 5 -p tcp -e 1040 -c 1 -i 8 -a 1 -x {1.0 3.0 5 ------- null}
h -t 0.424432 -s 1 -d 5 -p tcp -e 1040 -c 1 -i 9 -a 1 -x {1.0 3.0 6 ------- null}
+ -t 0.460016 -s 1 -d 5 -p tcp -e 1040 -c 1 -i 6 -a 1 -x {1.0 3.0 3 ------- null}
- -t 0.460016 -s 1 -d 5 -p tcp -e 1040 -c 1 -i 6 -a 1 -x {1.0 3.0 3 ------- null}
h -t 0.460016 -s 1 -d 5 -p tcp -e 1040 -c 1 -i 6 -a 1 -x {1.0 3.0 -1 ------- null}
+ -t 0.460016 -s 1 -d 5 -p tcp -e 1040 -c 1 -i 7 -a 1 -x {1.0 3.0 4 ------- null}
d -t 0.46002 -s 4 -d 5 -p tcp -e 1040 -c 1 -i 6 -a 1 -x {1.0 3.0 3 ------- null}
d -t 0.46002 -s 2 -d 5 -p tcp -e 1040 -c 1 -i 6 -a 1 -x {1.0 3.0 3 ------- null}
d -t 0.46002 -s 0 -d 5 -p tcp -e 1040 -c 1 -i 6 -a 1 -x {1.0 3.0 3 ------- null}
+ -t 0.464432 -s 1 -d 5 -p tcp -e 1040 -c 1 -i 8 -a 1 -x {1.0 3.0 5 ------- null}
+ -t 0.464432 -s 1 -d 5 -p tcp -e 1040 -c 1 -i 9 -a 1 -x {1.0 3.0 6 ------- null}
- -t 0.464432 -s 1 -d 5 -p tcp -e 1040 -c 1 -i 7 -a 1 -x {1.0 3.0 4 ------- null}
h -t 0.464432 -s 1 -d 5 -p tcp -e 1040 -c 1 -i 7 -a 1 -x {1.0 3.0 -1 ------- null}
d -t 0.464436 -s 4 -d 5 -p tcp -e 1040 -c 1 -i 7 -a 1 -x {1.0 3.0 4 ------- null}
d -t 0.464436 -s 2 -d 5 -p tcp -e 1040 -c 1 -i 7 -a 1 -x {1.0 3.0 4 ------- null}
d -t 0.464436 -s 0 -d 5 -p tcp -e 1040 -c 1 -i 7 -a 1 -x {1.0 3.0 4 ------- null}
- -t 0.468848 -s 1 -d 5 -p tcp -e 1040 -c 1 -i 8 -a 1 -x {1.0 3.0 5 ------- null}
h -t 0.468848 -s 1 -d 5 -p tcp -e 1040 -c 1 -i 8 -a 1 -x {1.0 3.0 -1 ------- null}
d -t 0.468852 -s 4 -d 5 -p tcp -e 1040 -c 1 -i 8 -a 1 -x {1.0 3.0 5 ------- null}
d -t 0.468852 -s 2 -d 5 -p tcp -e 1040 -c 1 -i 8 -a 1 -x {1.0 3.0 5 ------- null}
d -t 0.468852 -s 0 -d 5 -p tcp -e 1040 -c 1 -i 8 -a 1 -x {1.0 3.0 5 ------- null}
- -t 0.473264 -s 1 -d 5 -p tcp -e 1040 -c 1 -i 9 -a 1 -x {1.0 3.0 6 ------- null}
h -t 0.473264 -s 1 -d 5 -p tcp -e 1040 -c 1 -i 9 -a 1 -x {1.0 3.0 -1 ------- null}
d -t 0.473268 -s 4 -d 5 -p tcp -e 1040 -c 1 -i 9 -a 1 -x {1.0 3.0 6 ------- null}
d -t 0.473268 -s 2 -d 5 -p tcp -e 1040 -c 1 -i 9 -a 1 -x {1.0 3.0 6 ------- null}
d -t 0.473268 -s 0 -d 5 -p tcp -e 1040 -c 1 -i 9 -a 1 -x {1.0 3.0 6 ------- null}
r -t 0.50002 -s 5 -d 3 -p tcp -e 1040 -c 1 -i 6 -a 1 -x {1.0 3.0 3 ------- null}
h -t 0.50002 -s 3 -d 5 -p ack -e 40 -c 1 -i 10 -a 1 -x {3.0 1.0 3 ------- null}
r -t 0.504436 -s 5 -d 3 -p tcp -e 1040 -c 1 -i 7 -a 1 -x {1.0 3.0 4 ------- null}
h -t 0.504436 -s 3 -d 5 -p ack -e 40 -c 1 -i 11 -a 1 -x {3.0 1.0 4 ------- null}
r -t 0.508852 -s 5 -d 3 -p tcp -e 1040 -c 1 -i 8 -a 1 -x {1.0 3.0 5 ------- null}
h -t 0.508852 -s 3 -d 5 -p ack -e 40 -c 1 -i 12 -a 1 -x {3.0 1.0 5 ------- null}
r -t 0.513268 -s 5 -d 3 -p tcp -e 1040 -c 1 -i 9 -a 1 -x {1.0 3.0 6 ------- null}
h -t 0.513268 -s 3 -d 5 -p ack -e 40 -c 1 -i 13 -a 1 -x {3.0 1.0 6 ------- null}
+ -t 0.54002 -s 3 -d 5 -p ack -e 40 -c 1 -i 10 -a 1 -x {3.0 1.0 3 ------- null}
- -t 0.54002 -s 3 -d 5 -p ack -e 40 -c 1 -i 10 -a 1 -x {3.0 1.0 3 ------- null}
h -t 0.54002 -s 3 -d 5 -p ack -e 40 -c 1 -i 10 -a 1 -x {3.0 1.0 -1 ------- null}
d -t 0.540024 -s 4 -d 5 -p ack -e 40 -c 1 -i 10 -a 1 -x {3.0 1.0 3 ------- null}
d -t 0.540024 -s 2 -d 5 -p ack -e 40 -c 1 -i 10 -a 1 -x {3.0 1.0 3 ------- null}
d -t 0.540024 -s 0 -d 5 -p ack -e 40 -c 1 -i 10 -a 1 -x {3.0 1.0 3 ------- null}
+ -t 0.544436 -s 3 -d 5 -p ack -e 40 -c 1 -i 11 -a 1 -x {3.0 1.0 4 ------- null}
- -t 0.544436 -s 3 -d 5 -p ack -e 40 -c 1 -i 11 -a 1 -x {3.0 1.0 4 ------- null}
h -t 0.544436 -s 3 -d 5 -p ack -e 40 -c 1 -i 11 -a 1 -x {3.0 1.0 -1 ------- null}
d -t 0.54444 -s 4 -d 5 -p ack -e 40 -c 1 -i 11 -a 1 -x {3.0 1.0 4 ------- null}
d -t 0.54444 -s 2 -d 5 -p ack -e 40 -c 1 -i 11 -a 1 -x {3.0 1.0 4 ------- null}
d -t 0.54444 -s 0 -d 5 -p ack -e 40 -c 1 -i 11 -a 1 -x {3.0 1.0 4 ------- null}
+ -t 0.548852 -s 3 -d 5 -p ack -e 40 -c 1 -i 12 -a 1 -x {3.0 1.0 5 ------- null}
- -t 0.548852 -s 3 -d 5 -p ack -e 40 -c 1 -i 12 -a 1 -x {3.0 1.0 5 ------- null}
h -t 0.548852 -s 3 -d 5 -p ack -e 40 -c 1 -i 12 -a 1 -x {3.0 1.0 -1 ------- null}
d -t 0.548856 -s 4 -d 5 -p ack -e 40 -c 1 -i 12 -a 1 -x {3.0 1.0 5 ------- null}
d -t 0.548856 -s 2 -d 5 -p ack -e 40 -c 1 -i 12 -a 1 -x {3.0 1.0 5 ------- null}
d -t 0.548856 -s 0 -d 5 -p ack -e 40 -c 1 -i 12 -a 1 -x {3.0 1.0 5 ------- null}
+ -t 0.553268 -s 3 -d 5 -p ack -e 40 -c 1 -i 13 -a 1 -x {3.0 1.0 6 ------- null}
- -t 0.553268 -s 3 -d 5 -p ack -e 40 -c 1 -i 13 -a 1 -x {3.0 1.0 6 ------- null}
h -t 0.553268 -s 3 -d 5 -p ack -e 40 -c 1 -i 13 -a 1 -x {3.0 1.0 -1 ------- null}
d -t 0.553272 -s 4 -d 5 -p ack -e 40 -c 1 -i 13 -a 1 -x {3.0 1.0 6 ------- null}
d -t 0.553272 -s 2 -d 5 -p ack -e 40 -c 1 -i 13 -a 1 -x {3.0 1.0 6 ------- null}
d -t 0.553272 -s 0 -d 5 -p ack -e 40 -c 1 -i 13 -a 1 -x {3.0 1.0 6 ------- null}
r -t 0.580024 -s 5 -d 1 -p ack -e 40 -c 1 -i 10 -a 1 -x {3.0 1.0 3 ------- null}
h -t 0.580024 -s 1 -d 5 -p tcp -e 1040 -c 1 -i 14 -a 1 -x {1.0 3.0 7 ------- null}
h -t 0.580024 -s 1 -d 5 -p tcp -e 1040 -c 1 -i 15 -a 1 -x {1.0 3.0 8 ------- null}
r -t 0.58444 -s 5 -d 1 -p ack -e 40 -c 1 -i 11 -a 1 -x {3.0 1.0 4 ------- null}
h -t 0.58444 -s 1 -d 5 -p tcp -e 1040 -c 1 -i 16 -a 1 -x {1.0 3.0 9 ------- null}
h -t 0.58444 -s 1 -d 5 -p tcp -e 1040 -c 1 -i 17 -a 1 -x {1.0 3.0 10 ------- null}
r -t 0.588856 -s 5 -d 1 -p ack -e 40 -c 1 -i 12 -a 1 -x {3.0 1.0 5 ------- null}
h -t 0.588856 -s 1 -d 5 -p tcp -e 1040 -c 1 -i 18 -a 1 -x {1.0 3.0 11 ------- null}
h -t 0.588856 -s 1 -d 5 -p tcp -e 1040 -c 1 -i 19 -a 1 -x {1.0 3.0 12 ------- null}
r -t 0.593272 -s 5 -d 1 -p ack -e 40 -c 1 -i 13 -a 1 -x {3.0 1.0 6 ------- null}
h -t 0.593272 -s 1 -d 5 -p tcp -e 1040 -c 1 -i 20 -a 1 -x {1.0 3.0 13 ------- null}
h -t 0.593272 -s 1 -d 5 -p tcp -e 1040 -c 1 -i 21 -a 1 -x {1.0 3.0 14 ------- null}
+ -t 0.620024 -s 1 -d 5 -p tcp -e 1040 -c 1 -i 14 -a 1 -x {1.0 3.0 7 ------- null}
- -t 0.620024 -s 1 -d 5 -p tcp -e 1040 -c 1 -i 14 -a 1 -x {1.0 3.0 7 ------- null}
h -t 0.620024 -s 1 -d 5 -p tcp -e 1040 -c 1 -i 14 -a 1 -x {1.0 3.0 -1 ------- null}
+ -t 0.620024 -s 1 -d 5 -p tcp -e 1040 -c 1 -i 15 -a 1 -x {1.0 3.0 8 ------- null}
d -t 0.620028 -s 4 -d 5 -p tcp -e 1040 -c 1 -i 14 -a 1 -x {1.0 3.0 7 ------- null}
d -t 0.620028 -s 2 -d 5 -p tcp -e 1040 -c 1 -i 14 -a 1 -x {1.0 3.0 7 ------- null}
d -t 0.620028 -s 0 -d 5 -p tcp -e 1040 -c 1 -i 14 -a 1 -x {1.0 3.0 7 ------- null}
+ -t 0.62444 -s 1 -d 5 -p tcp -e 1040 -c 1 -i 16 -a 1 -x {1.0 3.0 9 ------- null}
+ -t 0.62444 -s 1 -d 5 -p tcp -e 1040 -c 1 -i 17 -a 1 -x {1.0 3.0 10 ------- null}
- -t 0.62444 -s 1 -d 5 -p tcp -e 1040 -c 1 -i 15 -a 1 -x {1.0 3.0 8 ------- null}
h -t 0.62444 -s 1 -d 5 -p tcp -e 1040 -c 1 -i 15 -a 1 -x {1.0 3.0 -1 ------- null}
d -t 0.624444 -s 4 -d 5 -p tcp -e 1040 -c 1 -i 15 -a 1 -x {1.0 3.0 8 ------- null}
d -t 0.624444 -s 2 -d 5 -p tcp -e 1040 -c 1 -i 15 -a 1 -x {1.0 3.0 8 ------- null}
d -t 0.624444 -s 0 -d 5 -p tcp -e 1040 -c 1 -i 15 -a 1 -x {1.0 3.0 8 ------- null}
+ -t 0.628856 -s 1 -d 5 -p tcp -e 1040 -c 1 -i 18 -a 1 -x {1.0 3.0 11 ------- null}
+ -t 0.628856 -s 1 -d 5 -p tcp -e 1040 -c 1 -i 19 -a 1 -x {1.0 3.0 12 ------- null}
- -t 0.628856 -s 1 -d 5 -p tcp -e 1040 -c 1 -i 16 -a 1 -x {1.0 3.0 9 ------- null}
h -t 0.628856 -s 1 -d 5 -p tcp -e 1040 -c 1 -i 16 -a 1 -x {1.0 3.0 -1 ------- null}
d -t 0.62886 -s 4 -d 5 -p tcp -e 1040 -c 1 -i 16 -a 1 -x {1.0 3.0 9 ------- null}
d -t 0.62886 -s 2 -d 5 -p tcp -e 1040 -c 1 -i 16 -a 1 -x {1.0 3.0 9 ------- null}
d -t 0.62886 -s 0 -d 5 -p tcp -e 1040 -c 1 -i 16 -a 1 -x {1.0 3.0 9 ------- null}
+ -t 0.633272 -s 1 -d 5 -p tcp -e 1040 -c 1 -i 20 -a 1 -x {1.0 3.0 13 ------- null}
+ -t 0.633272 -s 1 -d 5 -p tcp -e 1040 -c 1 -i 21 -a 1 -x {1.0 3.0 14 ------- null}
- -t 0.633272 -s 1 -d 5 -p tcp -e 1040 -c 1 -i 17 -a 1 -x {1.0 3.0 10 ------- null}
h -t 0.633272 -s 1 -d 5 -p tcp -e 1040 -c 1 -i 17 -a 1 -x {1.0 3.0 -1 ------- null}
d -t 0.633276 -s 4 -d 5 -p tcp -e 1040 -c 1 -i 17 -a 1 -x {1.0 3.0 10 ------- null}
d -t 0.633276 -s 2 -d 5 -p tcp -e 1040 -c 1 -i 17 -a 1 -x {1.0 3.0 10 ------- null}
d -t 0.633276 -s 0 -d 5 -p tcp -e 1040 -c 1 -i 17 -a 1 -x {1.0 3.0 10 ------- null}
- -t 0.637688 -s 1 -d 5 -p tcp -e 1040 -c 1 -i 18 -a 1 -x {1.0 3.0 11 ------- null}
h -t 0.637688 -s 1 -d 5 -p tcp -e 1040 -c 1 -i 18 -a 1 -x {1.0 3.0 -1 ------- null}
d -t 0.637692 -s 4 -d 5 -p tcp -e 1040 -c 1 -i 18 -a 1 -x {1.0 3.0 11 ------- null}
d -t 0.637692 -s 2 -d 5 -p tcp -e 1040 -c 1 -i 18 -a 1 -x {1.0 3.0 11 ------- null}
d -t 0.637692 -s 0 -d 5 -p tcp -e 1040 -c 1 -i 18 -a 1 -x {1.0 3.0 11 ------- null}
- -t 0.642104 -s 1 -d 5 -p tcp -e 1040 -c 1 -i 19 -a 1 -x {1.0 3.0 12 ------- null}
h -t 0.642104 -s 1 -d 5 -p tcp -e 1040 -c 1 -i 19 -a 1 -x {1.0 3.0 -1 ------- null}
d -t 0.642108 -s 4 -d 5 -p tcp -e 1040 -c 1 -i 19 -a 1 -x {1.0 3.0 12 ------- null}
d -t 0.642108 -s 2 -d 5 -p tcp -e 1040 -c 1 -i 19 -a 1 -x {1.0 3.0 12 ------- null}
d -t 0.642108 -s 0 -d 5 -p tcp -e 1040 -c 1 -i 19 -a 1 -x {1.0 3.0 12 ------- null}
- -t 0.64652 -s 1 -d 5 -p tcp -e 1040 -c 1 -i 20 -a 1 -x {1.0 3.0 13 ------- null}
h -t 0.64652 -s 1 -d 5 -p tcp -e 1040 -c 1 -i 20 -a 1 -x {1.0 3.0 -1 ------- null}
d -t 0.646524 -s 4 -d 5 -p tcp -e 1040 -c 1 -i 20 -a 1 -x {1.0 3.0 13 ------- null}
d -t 0.646524 -s 2 -d 5 -p tcp -e 1040 -c 1 -i 20 -a 1 -x {1.0 3.0 13 ------- null}
d -t 0.646524 -s 0 -d 5 -p tcp -e 1040 -c 1 -i 20 -a 1 -x {1.0 3.0 13 ------- null}
- -t 0.650936 -s 1 -d 5 -p tcp -e 1040 -c 1 -i 21 -a 1 -x {1.0 3.0 14 ------- null}
h -t 0.650936 -s 1 -d 5 -p tcp -e 1040 -c 1 -i 21 -a 1 -x {1.0 3.0 -1 ------- null}
d -t 0.65094 -s 4 -d 5 -p tcp -e 1040 -c 1 -i 21 -a 1 -x {1.0 3.0 14 ------- null}
d -t 0.65094 -s 2 -d 5 -p tcp -e 1040 -c 1 -i 21 -a 1 -x {1.0 3.0 14 ------- null}
d -t 0.65094 -s 0 -d 5 -p tcp -e 1040 -c 1 -i 21 -a 1 -x {1.0 3.0 14 ------- null}
r -t 0.660028 -s 5 -d 3 -p tcp -e 1040 -c 1 -i 14 -a 1 -x {1.0 3.0 7 ------- null}
h -t 0.660028 -s 3 -d 5 -p ack -e 40 -c 1 -i 22 -a 1 -x {3.0 1.0 7 ------- null}
r -t 0.664444 -s 5 -d 3 -p tcp -e 1040 -c 1 -i 15 -a 1 -x {1.0 3.0 8 ------- null}
h -t 0.664444 -s 3 -d 5 -p ack -e 40 -c 1 -i 23 -a 1 -x {3.0 1.0 8 ------- null}
r -t 0.66886 -s 5 -d 3 -p tcp -e 1040 -c 1 -i 16 -a 1 -x {1.0 3.0 9 ------- null}
h -t 0.66886 -s 3 -d 5 -p ack -e 40 -c 1 -i 24 -a 1 -x {3.0 1.0 9 ------- null}
r -t 0.673276 -s 5 -d 3 -p tcp -e 1040 -c 1 -i 17 -a 1 -x {1.0 3.0 10 ------- null}
h -t 0.673276 -s 3 -d 5 -p ack -e 40 -c 1 -i 25 -a 1 -x {3.0 1.0 10 ------- null}
r -t 0.677692 -s 5 -d 3 -p tcp -e 1040 -c 1 -i 18 -a 1 -x {1.0 3.0 11 ------- null}
h -t 0.677692 -s 3 -d 5 -p ack -e 40 -c 1 -i 26 -a 1 -x {3.0 1.0 11 ------- null}
r -t 0.682108 -s 5 -d 3 -p tcp -e 1040 -c 1 -i 19 -a 1 -x {1.0 3.0 12 ------- null}
h -t 0.682108 -s 3 -d 5 -p ack -e 40 -c 1 -i 27 -a 1 -x {3.0 1.0 12 ------- null}
r -t 0.686524 -s 5 -d 3 -p tcp -e 1040 -c 1 -i 20 -a 1 -x {1.0 3.0 13 ------- null}
h -t 0.686524 -s 3 -d 5 -p ack -e 40 -c 1 -i 28 -a 1 -x {3.0 1.0 13 ------- null}
r -t 0.69094 -s 5 -d 3 -p tcp -e 1040 -c 1 -i 21 -a 1 -x {1.0 3.0 14 ------- null}
h -t 0.69094 -s 3 -d 5 -p ack -e 40 -c 1 -i 29 -a 1 -x {3.0 1.0 14 ------- null}
+ -t 0.700028 -s 3 -d 5 -p ack -e 40 -c 1 -i 22 -a 1 -x {3.0 1.0 7 ------- null}
- -t 0.700028 -s 3 -d 5 -p ack -e 40 -c 1 -i 22 -a 1 -x {3.0 1.0 7 ------- null}
h -t 0.700028 -s 3 -d 5 -p ack -e 40 -c 1 -i 22 -a 1 -x {3.0 1.0 -1 ------- null}
d -t 0.700032 -s 4 -d 5 -p ack -e 40 -c 1 -i 22 -a 1 -x {3.0 1.0 7 ------- null}
d -t 0.700032 -s 2 -d 5 -p ack -e 40 -c 1 -i 22 -a 1 -x {3.0 1.0 7 ------- null}
d -t 0.700032 -s 0 -d 5 -p ack -e 40 -c 1 -i 22 -a 1 -x {3.0 1.0 7 ------- null}
+ -t 0.704444 -s 3 -d 5 -p ack -e 40 -c 1 -i 23 -a 1 -x {3.0 1.0 8 ------- null}
- -t 0.704444 -s 3 -d 5 -p ack -e 40 -c 1 -i 23 -a 1 -x {3.0 1.0 8 ------- null}
h -t 0.704444 -s 3 -d 5 -p ack -e 40 -c 1 -i 23 -a 1 -x {3.0 1.0 -1 ------- null}
d -t 0.704448 -s 4 -d 5 -p ack -e 40 -c 1 -i 23 -a 1 -x {3.0 1.0 8 ------- null}
d -t 0.704448 -s 2 -d 5 -p ack -e 40 -c 1 -i 23 -a 1 -x {3.0 1.0 8 ------- null}
d -t 0.704448 -s 0 -d 5 -p ack -e 40 -c 1 -i 23 -a 1 -x {3.0 1.0 8 ------- null}
+ -t 0.70886 -s 3 -d 5 -p ack -e 40 -c 1 -i 24 -a 1 -x {3.0 1.0 9 ------- null}
- -t 0.70886 -s 3 -d 5 -p ack -e 40 -c 1 -i 24 -a 1 -x {3.0 1.0 9 ------- null}
h -t 0.70886 -s 3 -d 5 -p ack -e 40 -c 1 -i 24 -a 1 -x {3.0 1.0 -1 ------- null}
d -t 0.708864 -s 4 -d 5 -p ack -e 40 -c 1 -i 24 -a 1 -x {3.0 1.0 9 ------- null}
d -t 0.708864 -s 2 -d 5 -p ack -e 40 -c 1 -i 24 -a 1 -x {3.0 1.0 9 ------- null}
d -t 0.708864 -s 0 -d 5 -p ack -e 40 -c 1 -i 24 -a 1 -x {3.0 1.0 9 ------- null}
+ -t 0.713276 -s 3 -d 5 -p ack -e 40 -c 1 -i 25 -a 1 -x {3.0 1.0 10 ------- null}
- -t 0.713276 -s 3 -d 5 -p ack -e 40 -c 1 -i 25 -a 1 -x {3.0 1.0 10 ------- null}
h -t 0.713276 -s 3 -d 5 -p ack -e 40 -c 1 -i 25 -a 1 -x {3.0 1.0 -1 ------- null}
d -t 0.71328 -s 4 -d 5 -p ack -e 40 -c 1 -i 25 -a 1 -x {3.0 1.0 10 ------- null}
d -t 0.71328 -s 2 -d 5 -p ack -e 40 -c 1 -i 25 -a 1 -x {3.0 1.0 10 ------- null}
d -t 0.71328 -s 0 -d 5 -p ack -e 40 -c 1 -i 25 -a 1 -x {3.0 1.0 10 ------- null}
+ -t 0.717692 -s 3 -d 5 -p ack -e 40 -c 1 -i 26 -a 1 -x {3.0 1.0 11 ------- null}
- -t 0.717692 -s 3 -d 5 -p ack -e 40 -c 1 -i 26 -a 1 -x {3.0 1.0 11 ------- null}
h -t 0.717692 -s 3 -d 5 -p ack -e 40 -c 1 -i 26 -a 1 -x {3.0 1.0 -1 ------- null}
d -t 0.717696 -s 4 -d 5 -p ack -e 40 -c 1 -i 26 -a 1 -x {3.0 1.0 11 ------- null}
d -t 0.717696 -s 2 -d 5 -p ack -e 40 -c 1 -i 26 -a 1 -x {3.0 1.0 11 ------- null}
d -t 0.717696 -s 0 -d 5 -p ack -e 40 -c 1 -i 26 -a 1 -x {3.0 1.0 11 ------- null}
+ -t 0.722108 -s 3 -d 5 -p ack -e 40 -c 1 -i 27 -a 1 -x {3.0 1.0 12 ------- null}
- -t 0.722108 -s 3 -d 5 -p ack -e 40 -c 1 -i 27 -a 1 -x {3.0 1.0 12 ------- null}
h -t 0.722108 -s 3 -d 5 -p ack -e 40 -c 1 -i 27 -a 1 -x {3.0 1.0 -1 ------- null}
d -t 0.722112 -s 4 -d 5 -p ack -e 40 -c 1 -i 27 -a 1 -x {3.0 1.0 12 ------- null}
d -t 0.722112 -s 2 -d 5 -p ack -e 40 -c 1 -i 27 -a 1 -x {3.0 1.0 12 ------- null}
d -t 0.722112 -s 0 -d 5 -p ack -e 40 -c 1 -i 27 -a 1 -x {3.0 1.0 12 ------- null}
+ -t 0.726524 -s 3 -d 5 -p ack -e 40 -c 1 -i 28 -a 1 -x {3.0 1.0 13 ------- null}
- -t 0.726524 -s 3 -d 5 -p ack -e 40 -c 1 -i 28 -a 1 -x {3.0 1.0 13 ------- null}
h -t 0.726524 -s 3 -d 5 -p ack -e 40 -c 1 -i 28 -a 1 -x {3.0 1.0 -1 ------- null}
d -t 0.726528 -s 4 -d 5 -p ack -e 40 -c 1 -i 28 -a 1 -x {3.0 1.0 13 ------- null}
d -t 0.726528 -s 2 -d 5 -p ack -e 40 -c 1 -i 28 -a 1 -x {3.0 1.0 13 ------- null}
d -t 0.726528 -s 0 -d 5 -p ack -e 40 -c 1 -i 28 -a 1 -x {3.0 1.0 13 ------- null}
+ -t 0.73094 -s 3 -d 5 -p ack -e 40 -c 1 -i 29 -a 1 -x {3.0 1.0 14 ------- null}
- -t 0.73094 -s 3 -d 5 -p ack -e 40 -c 1 -i 29 -a 1 -x {3.0 1.0 14 ------- null}
h -t 0.73094 -s 3 -d 5 -p ack -e 40 -c 1 -i 29 -a 1 -x {3.0 1.0 -1 ------- null}
d -t 0.730944 -s 4 -d 5 -p ack -e 40 -c 1 -i 29 -a 1 -x {3.0 1.0 14 ------- null}
d -t 0.730944 -s 2 -d 5 -p ack -e 40 -c 1 -i 29 -a 1 -x {3.0 1.0 14 ------- null}
d -t 0.730944 -s 0 -d 5 -p ack -e 40 -c 1 -i 29 -a 1 -x {3.0 1.0 14 ------- null}
r -t 0.740032 -s 5 -d 1 -p ack -e 40 -c 1 -i 22 -a 1 -x {3.0 1.0 7 ------- null}
h -t 0.740032 -s 1 -d 5 -p tcp -e 1040 -c 1 -i 30 -a 1 -x {1.0 3.0 15 ------- null}
h -t 0.740032 -s 1 -d 5 -p tcp -e 1040 -c 1 -i 31 -a 1 -x {1.0 3.0 16 ------- null}
r -t 0.744448 -s 5 -d 1 -p ack -e 40 -c 1 -i 23 -a 1 -x {3.0 1.0 8 ------- null}
h -t 0.744448 -s 1 -d 5 -p tcp -e 1040 -c 1 -i 32 -a 1 -x {1.0 3.0 17 ------- null}
h -t 0.744448 -s 1 -d 5 -p tcp -e 1040 -c 1 -i 33 -a 1 -x {1.0 3.0 18 ------- null}
r -t 0.748864 -s 5 -d 1 -p ack -e 40 -c 1 -i 24 -a 1 -x {3.0 1.0 9 ------- null}
h -t 0.748864 -s 1 -d 5 -p tcp -e 1040 -c 1 -i 34 -a 1 -x {1.0 3.0 19 ------- null}
h -t 0.748864 -s 1 -d 5 -p tcp -e 1040 -c 1 -i 35 -a 1 -x {1.0 3.0 20 ------- null}
r -t 0.75328 -s 5 -d 1 -p ack -e 40 -c 1 -i 25 -a 1 -x {3.0 1.0 10 ------- null}
h -t 0.75328 -s 1 -d 5 -p tcp -e 1040 -c 1 -i 36 -a 1 -x {1.0 3.0 21 ------- null}
h -t 0.75328 -s 1 -d 5 -p tcp -e 1040 -c 1 -i 37 -a 1 -x {1.0 3.0 22 ------- null}
r -t 0.757696 -s 5 -d 1 -p ack -e 40 -c 1 -i 26 -a 1 -x {3.0 1.0 11 ------- null}
h -t 0.757696 -s 1 -d 5 -p tcp -e 1040 -c 1 -i 38 -a 1 -x {1.0 3.0 23 ------- null}
h -t 0.757696 -s 1 -d 5 -p tcp -e 1040 -c 1 -i 39 -a 1 -x {1.0 3.0 24 ------- null}
r -t 0.762112 -s 5 -d 1 -p ack -e 40 -c 1 -i 27 -a 1 -x {3.0 1.0 12 ------- null}
h -t 0.762112 -s 1 -d 5 -p tcp -e 1040 -c 1 -i 40 -a 1 -x {1.0 3.0 25 ------- null}
h -t 0.762112 -s 1 -d 5 -p tcp -e 1040 -c 1 -i 41 -a 1 -x {1.0 3.0 26 ------- null}
r -t 0.766528 -s 5 -d 1 -p ack -e 40 -c 1 -i 28 -a 1 -x {3.0 1.0 13 ------- null}
h -t 0.766528 -s 1 -d 5 -p tcp -e 1040 -c 1 -i 42 -a 1 -x {1.0 3.0 27 ------- null}
h -t 0.766528 -s 1 -d 5 -p tcp -e 1040 -c 1 -i 43 -a 1 -x {1.0 3.0 28 ------- null}
r -t 0.770944 -s 5 -d 1 -p ack -e 40 -c 1 -i 29 -a 1 -x {3.0 1.0 14 ------- null}
h -t 0.770944 -s 1 -d 5 -p tcp -e 1040 -c 1 -i 44 -a 1 -x {1.0 3.0 29 ------- null}
h -t 0.770944 -s 1 -d 5 -p tcp -e 1040 -c 1 -i 45 -a 1 -x {1.0 3.0 30 ------- null}
+ -t 0.780032 -s 1 -d 5 -p tcp -e 1040 -c 1 -i 30 -a 1 -x {1.0 3.0 15 ------- null}
- -t 0.780032 -s 1 -d 5 -p tcp -e 1040 -c 1 -i 30 -a 1 -x {1.0 3.0 15 ------- null}
h -t 0.780032 -s 1 -d 5 -p tcp -e 1040 -c 1 -i 30 -a 1 -x {1.0 3.0 -1 ------- null}
+ -t 0.780032 -s 1 -d 5 -p tcp -e 1040 -c 1 -i 31 -a 1 -x {1.0 3.0 16 ------- null}
d -t 0.780036 -s 4 -d 5 -p tcp -e 1040 -c 1 -i 30 -a 1 -x {1.0 3.0 15 ------- null}
d -t 0.780036 -s 2 -d 5 -p tcp -e 1040 -c 1 -i 30 -a 1 -x {1.0 3.0 15 ------- null}
d -t 0.780036 -s 0 -d 5 -p tcp -e 1040 -c 1 -i 30 -a 1 -x {1.0 3.0 15 ------- null}
+ -t 0.784448 -s 1 -d 5 -p tcp -e 1040 -c 1 -i 32 -a 1 -x {1.0 3.0 17 ------- null}
+ -t 0.784448 -s 1 -d 5 -p tcp -e 1040 -c 1 -i 33 -a 1 -x {1.0 3.0 18 ------- null}
- -t 0.784448 -s 1 -d 5 -p tcp -e 1040 -c 1 -i 31 -a 1 -x {1.0 3.0 16 ------- null}
h -t 0.784448 -s 1 -d 5 -p tcp -e 1040 -c 1 -i 31 -a 1 -x {1.0 3.0 -1 ------- null}
d -t 0.784452 -s 4 -d 5 -p tcp -e 1040 -c 1 -i 31 -a 1 -x {1.0 3.0 16 ------- null}
d -t 0.784452 -s 2 -d 5 -p tcp -e 1040 -c 1 -i 31 -a 1 -x {1.0 3.0 16 ------- null}
d -t 0.784452 -s 0 -d 5 -p tcp -e 1040 -c 1 -i 31 -a 1 -x {1.0 3.0 16 ------- null}
+ -t 0.788864 -s 1 -d 5 -p tcp -e 1040 -c 1 -i 34 -a 1 -x {1.0 3.0 19 ------- null}
+ -t 0.788864 -s 1 -d 5 -p tcp -e 1040 -c 1 -i 35 -a 1 -x {1.0 3.0 20 ------- null}
- -t 0.788864 -s 1 -d 5 -p tcp -e 1040 -c 1 -i 32 -a 1 -x {1.0 3.0 17 ------- null}
h -t 0.788864 -s 1 -d 5 -p tcp -e 1040 -c 1 -i 32 -a 1 -x {1.0 3.0 -1 ------- null}
d -t 0.788868 -s 4 -d 5 -p tcp -e 1040 -c 1 -i 32 -a 1 -x {1.0 3.0 17 ------- null}
d -t 0.788868 -s 2 -d 5 -p tcp -e 1040 -c 1 -i 32 -a 1 -x {1.0 3.0 17 ------- null}
d -t 0.788868 -s 0 -d 5 -p tcp -e 1040 -c 1 -i 32 -a 1 -x {1.0 3.0 17 ------- null}
+ -t 0.79328 -s 1 -d 5 -p tcp -e 1040 -c 1 -i 36 -a 1 -x {1.0 3.0 21 ------- null}
+ -t 0.79328 -s 1 -d 5 -p tcp -e 1040 -c 1 -i 37 -a 1 -x {1.0 3.0 22 ------- null}
- -t 0.79328 -s 1 -d 5 -p tcp -e 1040 -c 1 -i 33 -a 1 -x {1.0 3.0 18 ------- null}
h -t 0.79328 -s 1 -d 5 -p tcp -e 1040 -c 1 -i 33 -a 1 -x {1.0 3.0 -1 ------- null}
d -t 0.793284 -s 4 -d 5 -p tcp -e 1040 -c 1 -i 33 -a 1 -x {1.0 3.0 18 ------- null}
d -t 0.793284 -s 2 -d 5 -p tcp -e 1040 -c 1 -i 33 -a 1 -x {1.0 3.0 18 ------- null}
d -t 0.793284 -s 0 -d 5 -p tcp -e 1040 -c 1 -i 33 -a 1 -x {1.0 3.0 18 ------- null}
+ -t 0.797696 -s 1 -d 5 -p tcp -e 1040 -c 1 -i 38 -a 1 -x {1.0 3.0 23 ------- null}
+ -t 0.797696 -s 1 -d 5 -p tcp -e 1040 -c 1 -i 39 -a 1 -x {1.0 3.0 24 ------- null}
- -t 0.797696 -s 1 -d 5 -p tcp -e 1040 -c 1 -i 34 -a 1 -x {1.0 3.0 19 ------- null}
h -t 0.797696 -s 1 -d 5 -p tcp -e 1040 -c 1 -i 34 -a 1 -x {1.0 3.0 -1 ------- null}
d -t 0.7977 -s 4 -d 5 -p tcp -e 1040 -c 1 -i 34 -a 1 -x {1.0 3.0 19 ------- null}
d -t 0.7977 -s 2 -d 5 -p tcp -e 1040 -c 1 -i 34 -a 1 -x {1.0 3.0 19 ------- null}
d -t 0.7977 -s 0 -d 5 -p tcp -e 1040 -c 1 -i 34 -a 1 -x {1.0 3.0 19 ------- null}
+ -t 0.802112 -s 1 -d 5 -p tcp -e 1040 -c 1 -i 40 -a 1 -x {1.0 3.0 25 ------- null}
+ -t 0.802112 -s 1 -d 5 -p tcp -e 1040 -c 1 -i 41 -a 1 -x {1.0 3.0 26 ------- null}
- -t 0.802112 -s 1 -d 5 -p tcp -e 1040 -c 1 -i 35 -a 1 -x {1.0 3.0 20 ------- null}
h -t 0.802112 -s 1 -d 5 -p tcp -e 1040 -c 1 -i 35 -a 1 -x {1.0 3.0 -1 ------- null}
d -t 0.802116 -s 4 -d 5 -p tcp -e 1040 -c 1 -i 35 -a 1 -x {1.0 3.0 20 ------- null}
d -t 0.802116 -s 2 -d 5 -p tcp -e 1040 -c 1 -i 35 -a 1 -x {1.0 3.0 20 ------- null}
d -t 0.802116 -s 0 -d 5 -p tcp -e 1040 -c 1 -i 35 -a 1 -x {1.0 3.0 20 ------- null}
+ -t 0.806528 -s 1 -d 5 -p tcp -e 1040 -c 1 -i 42 -a 1 -x {1.0 3.0 27 ------- null}
+ -t 0.806528 -s 1 -d 5 -p tcp -e 1040 -c 1 -i 43 -a 1 -x {1.0 3.0 28 ------- null}
- -t 0.806528 -s 1 -d 5 -p tcp -e 1040 -c 1 -i 36 -a 1 -x {1.0 3.0 21 ------- null}
h -t 0.806528 -s 1 -d 5 -p tcp -e 1040 -c 1 -i 36 -a 1 -x {1.0 3.0 -1 ------- null}
d -t 0.806532 -s 4 -d 5 -p tcp -e 1040 -c 1 -i 36 -a 1 -x {1.0 3.0 21 ------- null}
d -t 0.806532 -s 2 -d 5 -p tcp -e 1040 -c 1 -i 36 -a 1 -x {1.0 3.0 21 ------- null}
d -t 0.806532 -s 0 -d 5 -p tcp -e 1040 -c 1 -i 36 -a 1 -x {1.0 3.0 21 ------- null}
+ -t 0.810944 -s 1 -d 5 -p tcp -e 1040 -c 1 -i 44 -a 1 -x {1.0 3.0 29 ------- null}
+ -t 0.810944 -s 1 -d 5 -p tcp -e 1040 -c 1 -i 45 -a 1 -x {1.0 3.0 30 ------- null}
- -t 0.810944 -s 1 -d 5 -p tcp -e 1040 -c 1 -i 37 -a 1 -x {1.0 3.0 22 ------- null}
h -t 0.810944 -s 1 -d 5 -p tcp -e 1040 -c 1 -i 37 -a 1 -x {1.0 3.0 -1 ------- null}
d -t 0.810948 -s 4 -d 5 -p tcp -e 1040 -c 1 -i 37 -a 1 -x {1.0 3.0 22 ------- null}
d -t 0.810948 -s 2 -d 5 -p tcp -e 1040 -c 1 -i 37 -a 1 -x {1.0 3.0 22 ------- null}
d -t 0.810948 -s 0 -d 5 -p tcp -e 1040 -c 1 -i 37 -a 1 -x {1.0 3.0 22 ------- null}
- -t 0.81536 -s 1 -d 5 -p tcp -e 1040 -c 1 -i 38 -a 1 -x {1.0 3.0 23 ------- null}
h -t 0.81536 -s 1 -d 5 -p tcp -e 1040 -c 1 -i 38 -a 1 -x {1.0 3.0 -1 ------- null}
d -t 0.815364 -s 4 -d 5 -p tcp -e 1040 -c 1 -i 38 -a 1 -x {1.0 3.0 23 ------- null}
d -t 0.815364 -s 2 -d 5 -p tcp -e 1040 -c 1 -i 38 -a 1 -x {1.0 3.0 23 ------- null}
d -t 0.815364 -s 0 -d 5 -p tcp -e 1040 -c 1 -i 38 -a 1 -x {1.0 3.0 23 ------- null}
- -t 0.819776 -s 1 -d 5 -p tcp -e 1040 -c 1 -i 39 -a 1 -x {1.0 3.0 24 ------- null}
h -t 0.819776 -s 1 -d 5 -p tcp -e 1040 -c 1 -i 39 -a 1 -x {1.0 3.0 -1 ------- null}
d -t 0.81978 -s 4 -d 5 -p tcp -e 1040 -c 1 -i 39 -a 1 -x {1.0 3.0 24 ------- null}
d -t 0.81978 -s 2 -d 5 -p tcp -e 1040 -c 1 -i 39 -a 1 -x {1.0 3.0 24 ------- null}
d -t 0.81978 -s 0 -d 5 -p tcp -e 1040 -c 1 -i 39 -a 1 -x {1.0 3.0 24 ------- null}
r -t 0.820036 -s 5 -d 3 -p tcp -e 1040 -c 1 -i 30 -a 1 -x {1.0 3.0 15 ------- null}
h -t 0.820036 -s 3 -d 5 -p ack -e 40 -c 1 -i 46 -a 1 -x {3.0 1.0 15 ------- null}
- -t 0.824192 -s 1 -d 5 -p tcp -e 1040 -c 1 -i 40 -a 1 -x {1.0 3.0 25 ------- null}
h -t 0.824192 -s 1 -d 5 -p tcp -e 1040 -c 1 -i 40 -a 1 -x {1.0 3.0 -1 ------- null}
d -t 0.824196 -s 4 -d 5 -p tcp -e 1040 -c 1 -i 40 -a 1 -x {1.0 3.0 25 ------- null}
d -t 0.824196 -s 2 -d 5 -p tcp -e 1040 -c 1 -i 40 -a 1 -x {1.0 3.0 25 ------- null}
d -t 0.824196 -s 0 -d 5 -p tcp -e 1040 -c 1 -i 40 -a 1 -x {1.0 3.0 25 ------- null}
r -t 0.824452 -s 5 -d 3 -p tcp -e 1040 -c 1 -i 31 -a 1 -x {1.0 3.0 16 ------- null}
h -t 0.824452 -s 3 -d 5 -p ack -e 40 -c 1 -i 47 -a 1 -x {3.0 1.0 16 ------- null}
- -t 0.828608 -s 1 -d 5 -p tcp -e 1040 -c 1 -i 41 -a 1 -x {1.0 3.0 26 ------- null}
h -t 0.828608 -s 1 -d 5 -p tcp -e 1040 -c 1 -i 41 -a 1 -x {1.0 3.0 -1 ------- null}
d -t 0.828612 -s 4 -d 5 -p tcp -e 1040 -c 1 -i 41 -a 1 -x {1.0 3.0 26 ------- null}
d -t 0.828612 -s 2 -d 5 -p tcp -e 1040 -c 1 -i 41 -a 1 -x {1.0 3.0 26 ------- null}
d -t 0.828612 -s 0 -d 5 -p tcp -e 1040 -c 1 -i 41 -a 1 -x {1.0 3.0 26 ------- null}
r -t 0.828868 -s 5 -d 3 -p tcp -e 1040 -c 1 -i 32 -a 1 -x {1.0 3.0 17 ------- null}
h -t 0.828868 -s 3 -d 5 -p ack -e 40 -c 1 -i 48 -a 1 -x {3.0 1.0 17 ------- null}
- -t 0.833024 -s 1 -d 5 -p tcp -e 1040 -c 1 -i 42 -a 1 -x {1.0 3.0 27 ------- null}
h -t 0.833024 -s 1 -d 5 -p tcp -e 1040 -c 1 -i 42 -a 1 -x {1.0 3.0 -1 ------- null}
d -t 0.833028 -s 4 -d 5 -p tcp -e 1040 -c 1 -i 42 -a 1 -x {1.0 3.0 27 ------- null}
d -t 0.833028 -s 2 -d 5 -p tcp -e 1040 -c 1 -i 42 -a 1 -x {1.0 3.0 27 ------- null}
d -t 0.833028 -s 0 -d 5 -p tcp -e 1040 -c 1 -i 42 -a 1 -x {1.0 3.0 27 ------- null}
r -t 0.833284 -s 5 -d 3 -p tcp -e 1040 -c 1 -i 33 -a 1 -x {1.0 3.0 18 ------- null}
h -t 0.833284 -s 3 -d 5 -p ack -e 40 -c 1 -i 49 -a 1 -x {3.0 1.0 18 ------- null}
- -t 0.83744 -s 1 -d 5 -p tcp -e 1040 -c 1 -i 43 -a 1 -x {1.0 3.0 28 ------- null}
h -t 0.83744 -s 1 -d 5 -p tcp -e 1040 -c 1 -i 43 -a 1 -x {1.0 3.0 -1 ------- null}
d -t 0.837444 -s 4 -d 5 -p tcp -e 1040 -c 1 -i 43 -a 1 -x {1.0 3.0 28 ------- null}
d -t 0.837444 -s 2 -d 5 -p tcp -e 1040 -c 1 -i 43 -a 1 -x {1.0 3.0 28 ------- null}
d -t 0.837444 -s 0 -d 5 -p tcp -e 1040 -c 1 -i 43 -a 1 -x {1.0 3.0 28 ------- null}
r -t 0.8377 -s 5 -d 3 -p tcp -e 1040 -c 1 -i 34 -a 1 -x {1.0 3.0 19 ------- null}
h -t 0.8377 -s 3 -d 5 -p ack -e 40 -c 1 -i 50 -a 1 -x {3.0 1.0 19 ------- null}
- -t 0.841856 -s 1 -d 5 -p tcp -e 1040 -c 1 -i 44 -a 1 -x {1.0 3.0 29 ------- null}
h -t 0.841856 -s 1 -d 5 -p tcp -e 1040 -c 1 -i 44 -a 1 -x {1.0 3.0 -1 ------- null}
d -t 0.84186 -s 4 -d 5 -p tcp -e 1040 -c 1 -i 44 -a 1 -x {1.0 3.0 29 ------- null}
d -t 0.84186 -s 2 -d 5 -p tcp -e 1040 -c 1 -i 44 -a 1 -x {1.0 3.0 29 ------- null}
d -t 0.84186 -s 0 -d 5 -p tcp -e 1040 -c 1 -i 44 -a 1 -x {1.0 3.0 29 ------- null}