+ 0.1 1 2 cbr 1000 ------- 2 1.0 10.0 0 0
- 0.1 1 2 cbr 1000 ------- 2 1.0 10.0 0 0
+ 0.1 8 6 cbr 1000 ------- 3 8.0 0.0 0 1
- 0.1 8 6 cbr 1000 ------- 3 8.0 0.0 0 1
+ 0.1 8 6 cbr 500 ------- 3 8.0 0.0 1 2
+ 0.1 1 2 cbr 1000 ------- 2 1.0 10.0 1 3
+ 0.1 8 6 cbr 1000 ------- 3 8.0 0.0 2 4
+ 0.1 8 6 cbr 500 ------- 3 8.0 0.0 3 5
- 0.104 1 2 cbr 1000 ------- 2 1.0 10.0 1 3
r 0.114 1 2 cbr 1000 ------- 2 1.0 10.0 0 0
h 0.114 2 11 cbr 1000 ------- 2 1.0 10.0 0 0
r 0.118 1 2 cbr 1000 ------- 2 1.0 10.0 1 3
h 0.118 2 11 cbr 1000 ------- 2 1.0 10.0 1 3
- 0.126667 8 6 cbr 500 ------- 3 8.0 0.0 1 2
- 0.14 8 6 cbr 1000 ------- 3 8.0 0.0 2 4
+ 0.154 2 11 cbr 1000 ------- 2 1.0 10.0 0 0
- 0.154 2 11 cbr 1000 ------- 2 1.0 10.0 0 0
d 0.154004 4 11 cbr 1000 ------- 2 1.0 10.0 0 0
+ 0.158 2 11 cbr 1000 ------- 2 1.0 10.0 1 3
- 0.158256 2 11 cbr 1000 ------- 2 1.0 10.0 1 3
d 0.15826 4 11 cbr 1000 ------- 2 1.0 10.0 1 3
- 0.166667 8 6 cbr 500 ------- 3 8.0 0.0 3 5
r 0.194004 11 9 cbr 1000 ------- 2 1.0 10.0 0 0
+ 0.194004 9 10 cbr 1000 ------- 2 1.0 10.0 0 0
- 0.194004 9 10 cbr 1000 ------- 2 1.0 10.0 0 0
r 0.19826 11 9 cbr 1000 ------- 2 1.0 10.0 1 3
+ 0.19826 9 10 cbr 1000 ------- 2 1.0 10.0 1 3
- 0.210004 9 10 cbr 1000 ------- 2 1.0 10.0 1 3
r 0.240004 9 10 cbr 1000 ------- 2 1.0 10.0 0 0
r 0.256004 9 10 cbr 1000 ------- 2 1.0 10.0 1 3
r 0.326667 8 6 cbr 1000 ------- 3 8.0 0.0 0 1
+ 0.326667 6 4 cbr 1000 ------- 3 8.0 0.0 0 1
- 0.326667 6 4 cbr 1000 ------- 3 8.0 0.0 0 1
r 0.34 8 6 cbr 500 ------- 3 8.0 0.0 1 2
+ 0.34 6 4 cbr 500 ------- 3 8.0 0.0 1 2
- 0.342667 6 4 cbr 500 ------- 3 8.0 0.0 1 2
r 0.366667 8 6 cbr 1000 ------- 3 8.0 0.0 2 4
+ 0.366667 6 4 cbr 1000 ------- 3 8.0 0.0 2 4
- 0.366667 6 4 cbr 1000 ------- 3 8.0 0.0 2 4
r 0.38 8 6 cbr 500 ------- 3 8.0 0.0 3 5
+ 0.38 6 4 cbr 500 ------- 3 8.0 0.0 3 5
r 0.382667 6 4 cbr 1000 ------- 3 8.0 0.0 0 1
h 0.382667 4 11 cbr 1000 ------- 3 8.0 0.0 0 1
- 0.382667 6 4 cbr 500 ------- 3 8.0 0.0 3 5
r 0.390667 6 4 cbr 500 ------- 3 8.0 0.0 1 2
h 0.390667 4 11 cbr 500 ------- 3 8.0 0.0 1 2
+ 0.422667 4 11 cbr 1000 ------- 3 8.0 0.0 0 1
- 0.422667 4 11 cbr 1000 ------- 3 8.0 0.0 0 1
r 0.422667 6 4 cbr 1000 ------- 3 8.0 0.0 2 4
h 0.422667 4 11 cbr 1000 ------- 3 8.0 0.0 2 4
d 0.422671 9 11 cbr 1000 ------- 3 8.0 0.0 0 1
+ 0.430667 4 11 cbr 500 ------- 3 8.0 0.0 1 2
- 0.430667 4 11 cbr 500 ------- 3 8.0 0.0 1 2
r 0.430667 6 4 cbr 500 ------- 3 8.0 0.0 3 5
h 0.430667 4 11 cbr 500 ------- 3 8.0 0.0 3 5
d 0.430671 9 11 cbr 500 ------- 3 8.0 0.0 1 2
+ 0.462667 4 11 cbr 1000 ------- 3 8.0 0.0 2 4
- 0.462667 4 11 cbr 1000 ------- 3 8.0 0.0 2 4
r 0.462671 11 2 cbr 1000 ------- 3 8.0 0.0 0 1
+ 0.462671 2 1 cbr 1000 ------- 3 8.0 0.0 0 1
- 0.462671 2 1 cbr 1000 ------- 3 8.0 0.0 0 1
d 0.462671 9 11 cbr 1000 ------- 3 8.0 0.0 2 4
+ 0.470667 4 11 cbr 500 ------- 3 8.0 0.0 3 5
- 0.470667 4 11 cbr 500 ------- 3 8.0 0.0 3 5
r 0.470671 11 2 cbr 500 ------- 3 8.0 0.0 1 2
+ 0.470671 2 1 cbr 500 ------- 3 8.0 0.0 1 2
- 0.470671 2 1 cbr 500 ------- 3 8.0 0.0 1 2
d 0.470671 9 11 cbr 500 ------- 3 8.0 0.0 3 5
r 0.476671 2 1 cbr 1000 ------- 3 8.0 0.0 0 1
+ 0.476671 1 0 cbr 1000 ------- 3 8.0 0.0 0 1
- 0.476671 1 0 cbr 1000 ------- 3 8.0 0.0 0 1
r 0.482671 2 1 cbr 500 ------- 3 8.0 0.0 1 2
+ 0.482671 1 0 cbr 500 ------- 3 8.0 0.0 1 2
- 0.482671 1 0 cbr 500 ------- 3 8.0 0.0 1 2
r 0.490671 1 0 cbr 1000 ------- 3 8.0 0.0 0 1
r 0.494671 1 0 cbr 500 ------- 3 8.0 0.0 1 2
r 0.502671 11 2 cbr 1000 ------- 3 8.0 0.0 2 4
+ 0.502671 2 1 cbr 1000 ------- 3 8.0 0.0 2 4
- 0.502671 2 1 cbr 1000 ------- 3 8.0 0.0 2 4
r 0.510671 11 2 cbr 500 ------- 3 8.0 0.0 3 5
+ 0.510671 2 1 cbr 500 ------- 3 8.0 0.0 3 5
- 0.510671 2 1 cbr 500 ------- 3 8.0 0.0 3 5
r 0.516671 2 1 cbr 1000 ------- 3 8.0 0.0 2 4
+ 0.516671 1 0 cbr 1000 ------- 3 8.0 0.0 2 4
- 0.516671 1 0 cbr 1000 ------- 3 8.0 0.0 2 4
r 0.522671 2 1 cbr 500 ------- 3 8.0 0.0 3 5
+ 0.522671 1 0 cbr 500 ------- 3 8.0 0.0 3 5
- 0.522671 1 0 cbr 500 ------- 3 8.0 0.0 3 5
r 0.530671 1 0 cbr 1000 ------- 3 8.0 0.0 2 4
r 0.534671 1 0 cbr 500 ------- 3 8.0 0.0 3 5
+ 0.9 1 2 cbr 1000 ------- 2 1.0 10.0 2 6
- 0.9 1 2 cbr 1000 ------- 2 1.0 10.0 2 6
r 0.914 1 2 cbr 1000 ------- 2 1.0 10.0 2 6
h 0.914 2 11 cbr 1000 ------- 2 1.0 10.0 2 6
+ 0.954 2 11 cbr 1000 ------- 2 1.0 10.0 2 6
- 0.954 2 11 cbr 1000 ------- 2 1.0 10.0 2 6
d 0.954004 4 11 cbr 1000 ------- 2 1.0 10.0 2 6
r 0.994004 11 9 cbr 1000 ------- 2 1.0 10.0 2 6
+ 0.994004 9 10 cbr 1000 ------- 2 1.0 10.0 2 6
- 0.994004 9 10 cbr 1000 ------- 2 1.0 10.0 2 6
h 1 2 11 tcp 40 ------- 1 2.0 7.0 0 7
+ 1.04 2 11 tcp 40 ------- 1 2.0 7.0 0 7
- 1.04 2 11 tcp 40 ------- 1 2.0 7.0 0 7
d 1.040004 9 11 tcp 40 ------- 1 2.0 7.0 0 7
r 1.040004 9 10 cbr 1000 ------- 2 1.0 10.0 2 6
r 1.080004 11 4 tcp 40 ------- 1 2.0 7.0 0 7
+ 1.080004 4 6 tcp 40 ------- 1 2.0 7.0 0 7
- 1.080004 4 6 tcp 40 ------- 1 2.0 7.0 0 7
r 1.120644 4 6 tcp 40 ------- 1 2.0 7.0 0 7
+ 1.120644 6 7 tcp 40 ------- 1 2.0 7.0 0 7
- 1.120644 6 7 tcp 40 ------- 1 2.0 7.0 0 7
+ 1.3 8 6 cbr 1000 ------- 3 8.0 0.0 4 8
- 1.3 8 6 cbr 1000 ------- 3 8.0 0.0 4 8
+ 1.3 8 6 cbr 500 ------- 3 8.0 0.0 5 9
r 1.321711 6 7 tcp 40 ------- 1 2.0 7.0 0 7
+ 1.321711 7 6 ack 40 ------- 1 7.0 2.0 0 10
- 1.321711 7 6 ack 40 ------- 1 7.0 2.0 0 10
- 1.326667 8 6 cbr 500 ------- 3 8.0 0.0 5 9
r 1.522777 7 6 ack 40 ------- 1 7.0 2.0 0 10
+ 1.522777 6 4 ack 40 ------- 1 7.0 2.0 0 10
- 1.522777 6 4 ack 40 ------- 1 7.0 2.0 0 10
r 1.526667 8 6 cbr 1000 ------- 3 8.0 0.0 4 8
+ 1.526667 6 4 cbr 1000 ------- 3 8.0 0.0 4 8
- 1.526667 6 4 cbr 1000 ------- 3 8.0 0.0 4 8
r 1.54 8 6 cbr 500 ------- 3 8.0 0.0 5 9
+ 1.54 6 4 cbr 500 ------- 3 8.0 0.0 5 9
- 1.542667 6 4 cbr 500 ------- 3 8.0 0.0 5 9
r 1.563417 6 4 ack 40 ------- 1 7.0 2.0 0 10
h 1.563417 4 11 ack 40 ------- 1 7.0 2.0 0 10
r 1.582667 6 4 cbr 1000 ------- 3 8.0 0.0 4 8
h 1.582667 4 11 cbr 1000 ------- 3 8.0 0.0 4 8
r 1.590667 6 4 cbr 500 ------- 3 8.0 0.0 5 9
h 1.590667 4 11 cbr 500 ------- 3 8.0 0.0 5 9
+ 1.603417 4 11 ack 40 ------- 1 7.0 2.0 0 10
- 1.603417 4 11 ack 40 ------- 1 7.0 2.0 0 10
d 1.603421 9 11 ack 40 ------- 1 7.0 2.0 0 10
+ 1.622667 4 11 cbr 1000 ------- 3 8.0 0.0 4 8
- 1.622667 4 11 cbr 1000 ------- 3 8.0 0.0 4 8
d 1.622671 9 11 cbr 1000 ------- 3 8.0 0.0 4 8
+ 1.630667 4 11 cbr 500 ------- 3 8.0 0.0 5 9
- 1.630667 4 11 cbr 500 ------- 3 8.0 0.0 5 9
d 1.630671 9 11 cbr 500 ------- 3 8.0 0.0 5 9
r 1.643421 11 2 ack 40 ------- 1 7.0 2.0 0 10
h 1.643421 2 11 tcp 1040 ------- 1 2.0 7.0 1 11
h 1.643421 2 11 tcp 1040 ------- 1 2.0 7.0 2 12
r 1.662671 11 2 cbr 1000 ------- 3 8.0 0.0 4 8
+ 1.662671 2 1 cbr 1000 ------- 3 8.0 0.0 4 8
- 1.662671 2 1 cbr 1000 ------- 3 8.0 0.0 4 8
r 1.670671 11 2 cbr 500 ------- 3 8.0 0.0 5 9
+ 1.670671 2 1 cbr 500 ------- 3 8.0 0.0 5 9
- 1.670671 2 1 cbr 500 ------- 3 8.0 0.0 5 9
r 1.676671 2 1 cbr 1000 ------- 3 8.0 0.0 4 8
+ 1.676671 1 0 cbr 1000 ------- 3 8.0 0.0 4 8
- 1.676671 1 0 cbr 1000 ------- 3 8.0 0.0 4 8
r 1.682671 2 1 cbr 500 ------- 3 8.0 0.0 5 9
+ 1.682671 1 0 cbr 500 ------- 3 8.0 0.0 5 9
- 1.682671 1 0 cbr 500 ------- 3 8.0 0.0 5 9
+ 1.683421 2 11 tcp 1040 ------- 1 2.0 7.0 1 11
- 1.683421 2 11 tcp 1040 ------- 1 2.0 7.0 1 11
+ 1.683421 2 11 tcp 1040 ------- 1 2.0 7.0 2 12
d 1.683425 9 11 tcp 1040 ------- 1 2.0 7.0 1 11
- 1.687837 2 11 tcp 1040 ------- 1 2.0 7.0 2 12
d 1.687841 9 11 tcp 1040 ------- 1 2.0 7.0 2 12
r 1.690671 1 0 cbr 1000 ------- 3 8.0 0.0 4 8
r 1.694671 1 0 cbr 500 ------- 3 8.0 0.0 5 9
+ 1.7 1 2 cbr 1000 ------- 2 1.0 10.0 3 13
- 1.7 1 2 cbr 1000 ------- 2 1.0 10.0 3 13
r 1.714 1 2 cbr 1000 ------- 2 1.0 10.0 3 13
h 1.714 2 11 cbr 1000 ------- 2 1.0 10.0 3 13
r 1.723425 11 4 tcp 1040 ------- 1 2.0 7.0 1 11
+ 1.723425 4 6 tcp 1040 ------- 1 2.0 7.0 1 11
- 1.723425 4 6 tcp 1040 ------- 1 2.0 7.0 1 11
r 1.727841 11 4 tcp 1040 ------- 1 2.0 7.0 2 12
+ 1.727841 4 6 tcp 1040 ------- 1 2.0 7.0 2 12
- 1.740065 4 6 tcp 1040 ------- 1 2.0 7.0 2 12
+ 1.754 2 11 cbr 1000 ------- 2 1.0 10.0 3 13
- 1.754 2 11 cbr 1000 ------- 2 1.0 10.0 3 13
d 1.754004 4 11 cbr 1000 ------- 2 1.0 10.0 3 13
r 1.780065 4 6 tcp 1040 ------- 1 2.0 7.0 1 11
+ 1.780065 6 7 tcp 1040 ------- 1 2.0 7.0 1 11
- 1.780065 6 7 tcp 1040 ------- 1 2.0 7.0 1 11
r 1.794004 11 9 cbr 1000 ------- 2 1.0 10.0 3 13
+ 1.794004 9 10 cbr 1000 ------- 2 1.0 10.0 3 13
- 1.794004 9 10 cbr 1000 ------- 2 1.0 10.0 3 13
r 1.796705 4 6 tcp 1040 ------- 1 2.0 7.0 2 12
+ 1.796705 6 7 tcp 1040 ------- 1 2.0 7.0 2 12
- 1.807799 6 7 tcp 1040 ------- 1 2.0 7.0 2 12
r 1.840004 9 10 cbr 1000 ------- 2 1.0 10.0 3 13
r 2.007799 6 7 tcp 1040 ------- 1 2.0 7.0 1 11
r 2.035532 6 7 tcp 1040 ------- 1 2.0 7.0 2 12
+ 2.035532 7 6 ack 40 ------- 1 7.0 2.0 2 14
- 2.035532 7 6 ack 40 ------- 1 7.0 2.0 2 14
r 2.236599 7 6 ack 40 ------- 1 7.0 2.0 2 14
+ 2.236599 6 4 ack 40 ------- 1 7.0 2.0 2 14
- 2.236599 6 4 ack 40 ------- 1 7.0 2.0 2 14
r 2.277239 6 4 ack 40 ------- 1 7.0 2.0 2 14
h 2.277239 4 11 ack 40 ------- 1 7.0 2.0 2 14
+ 2.317239 4 11 ack 40 ------- 1 7.0 2.0 2 14
- 2.317239 4 11 ack 40 ------- 1 7.0 2.0 2 14
d 2.317243 9 11 ack 40 ------- 1 7.0 2.0 2 14
r 2.357243 11 2 ack 40 ------- 1 7.0 2.0 2 14
h 2.357243 2 11 tcp 1040 ------- 1 2.0 7.0 3 15
h 2.357243 2 11 tcp 1040 ------- 1 2.0 7.0 4 16
h 2.357243 2 11 tcp 1040 ------- 1 2.0 7.0 5 17
+ 2.397243 2 11 tcp 1040 ------- 1 2.0 7.0 3 15
- 2.397243 2 11 tcp 1040 ------- 1 2.0 7.0 3 15
+ 2.397243 2 11 tcp 1040 ------- 1 2.0 7.0 4 16
+ 2.397243 2 11 tcp 1040 ------- 1 2.0 7.0 5 17
d 2.397247 9 11 tcp 1040 ------- 1 2.0 7.0 3 15
- 2.401659 2 11 tcp 1040 ------- 1 2.0 7.0 4 16
d 2.401663 9 11 tcp 1040 ------- 1 2.0 7.0 4 16
- 2.406075 2 11 tcp 1040 ------- 1 2.0 7.0 5 17
d 2.406079 9 11 tcp 1040 ------- 1 2.0 7.0 5 17
r 2.437247 11 4 tcp 1040 ------- 1 2.0 7.0 3 15
+ 2.437247 4 6 tcp 1040 ------- 1 2.0 7.0 3 15
- 2.437247 4 6 tcp 1040 ------- 1 2.0 7.0 3 15
r 2.441663 11 4 tcp 1040 ------- 1 2.0 7.0 4 16
+ 2.441663 4 6 tcp 1040 ------- 1 2.0 7.0 4 16
r 2.446079 11 4 tcp 1040 ------- 1 2.0 7.0 5 17
+ 2.446079 4 6 tcp 1040 ------- 1 2.0 7.0 5 17
- 2.453887 4 6 tcp 1040 ------- 1 2.0 7.0 4 16
- 2.470527 4 6 tcp 1040 ------- 1 2.0 7.0 5 17
r 2.493887 4 6 tcp 1040 ------- 1 2.0 7.0 3 15
+ 2.493887 6 7 tcp 1040 ------- 1 2.0 7.0 3 15
- 2.493887 6 7 tcp 1040 ------- 1 2.0 7.0 3 15
+ 2.5 8 6 cbr 1000 ------- 3 8.0 0.0 6 18
- 2.5 8 6 cbr 1000 ------- 3 8.0 0.0 6 18
+ 2.5 8 6 cbr 500 ------- 3 8.0 0.0 7 19
+ 2.5 1 2 cbr 1000 ------- 2 1.0 10.0 4 20
- 2.5 1 2 cbr 1000 ------- 2 1.0 10.0 4 20
r 2.510527 4 6 tcp 1040 ------- 1 2.0 7.0 4 16
+ 2.510527 6 7 tcp 1040 ------- 1 2.0 7.0 4 16
r 2.514 1 2 cbr 1000 ------- 2 1.0 10.0 4 20
h 2.514 2 11 cbr 1000 ------- 2 1.0 10.0 4 20
- 2.52162 6 7 tcp 1040 ------- 1 2.0 7.0 4 16
- 2.526667 8 6 cbr 500 ------- 3 8.0 0.0 7 19
r 2.527167 4 6 tcp 1040 ------- 1 2.0 7.0 5 17
+ 2.527167 6 7 tcp 1040 ------- 1 2.0 7.0 5 17
- 2.549353 6 7 tcp 1040 ------- 1 2.0 7.0 5 17
+ 2.554 2 11 cbr 1000 ------- 2 1.0 10.0 4 20
- 2.554 2 11 cbr 1000 ------- 2 1.0 10.0 4 20
d 2.554004 4 11 cbr 1000 ------- 2 1.0 10.0 4 20
r 2.594004 11 9 cbr 1000 ------- 2 1.0 10.0 4 20
+ 2.594004 9 10 cbr 1000 ------- 2 1.0 10.0 4 20
- 2.594004 9 10 cbr 1000 ------- 2 1.0 10.0 4 20
r 2.640004 9 10 cbr 1000 ------- 2 1.0 10.0 4 20
r 2.72162 6 7 tcp 1040 ------- 1 2.0 7.0 3 15
r 2.726667 8 6 cbr 1000 ------- 3 8.0 0.0 6 18
+ 2.726667 6 4 cbr 1000 ------- 3 8.0 0.0 6 18
- 2.726667 6 4 cbr 1000 ------- 3 8.0 0.0 6 18
r 2.74 8 6 cbr 500 ------- 3 8.0 0.0 7 19
+ 2.74 6 4 cbr 500 ------- 3 8.0 0.0 7 19
- 2.742667 6 4 cbr 500 ------- 3 8.0 0.0 7 19
r 2.749353 6 7 tcp 1040 ------- 1 2.0 7.0 4 16
+ 2.749353 7 6 ack 40 ------- 1 7.0 2.0 4 21
- 2.749353 7 6 ack 40 ------- 1 7.0 2.0 4 21
r 2.777087 6 7 tcp 1040 ------- 1 2.0 7.0 5 17
r 2.782667 6 4 cbr 1000 ------- 3 8.0 0.0 6 18
h 2.782667 4 11 cbr 1000 ------- 3 8.0 0.0 6 18
r 2.790667 6 4 cbr 500 ------- 3 8.0 0.0 7 19
h 2.790667 4 11 cbr 500 ------- 3 8.0 0.0 7 19
+ 2.822667 4 11 cbr 1000 ------- 3 8.0 0.0 6 18
- 2.822667 4 11 cbr 1000 ------- 3 8.0 0.0 6 18
d 2.822671 9 11 cbr 1000 ------- 3 8.0 0.0 6 18
+ 2.830667 4 11 cbr 500 ------- 3 8.0 0.0 7 19
- 2.830667 4 11 cbr 500 ------- 3 8.0 0.0 7 19
d 2.830671 9 11 cbr 500 ------- 3 8.0 0.0 7 19
r 2.862671 11 2 cbr 1000 ------- 3 8.0 0.0 6 18
+ 2.862671 2 1 cbr 1000 ------- 3 8.0 0.0 6 18
- 2.862671 2 1 cbr 1000 ------- 3 8.0 0.0 6 18
r 2.870671 11 2 cbr 500 ------- 3 8.0 0.0 7 19
+ 2.870671 2 1 cbr 500 ------- 3 8.0 0.0 7 19
- 2.870671 2 1 cbr 500 ------- 3 8.0 0.0 7 19
r 2.876671 2 1 cbr 1000 ------- 3 8.0 0.0 6 18
+ 2.876671 1 0 cbr 1000 ------- 3 8.0 0.0 6 18
- 2.876671 1 0 cbr 1000 ------- 3 8.0 0.0 6 18
+ 2.877087 7 6 ack 40 ------- 1 7.0 2.0 5 22
- 2.877087 7 6 ack 40 ------- 1 7.0 2.0 5 22
r 2.882671 2 1 cbr 500 ------- 3 8.0 0.0 7 19
+ 2.882671 1 0 cbr 500 ------- 3 8.0 0.0 7 19
- 2.882671 1 0 cbr 500 ------- 3 8.0 0.0 7 19
r 2.890671 1 0 cbr 1000 ------- 3 8.0 0.0 6 18
r 2.894671 1 0 cbr 500 ------- 3 8.0 0.0 7 19
r 2.95042 7 6 ack 40 ------- 1 7.0 2.0 4 21
+ 2.95042 6 4 ack 40 ------- 1 7.0 2.0 4 21
- 2.95042 6 4 ack 40 ------- 1 7.0 2.0 4 21
r 2.99106 6 4 ack 40 ------- 1 7.0 2.0 4 21
h 2.99106 4 11 ack 40 ------- 1 7.0 2.0 4 21
+ 3.03106 4 11 ack 40 ------- 1 7.0 2.0 4 21
- 3.03106 4 11 ack 40 ------- 1 7.0 2.0 4 21
d 3.031064 9 11 ack 40 ------- 1 7.0 2.0 4 21
r 3.071064 11 2 ack 40 ------- 1 7.0 2.0 4 21
h 3.071064 2 11 tcp 1040 ------- 1 2.0 7.0 6 23
h 3.071064 2 11 tcp 1040 ------- 1 2.0 7.0 7 24
h 3.071064 2 11 tcp 1040 ------- 1 2.0 7.0 8 25
r 3.078153 7 6 ack 40 ------- 1 7.0 2.0 5 22
+ 3.078153 6 4 ack 40 ------- 1 7.0 2.0 5 22
- 3.078153 6 4 ack 40 ------- 1 7.0 2.0 5 22
+ 3.111064 2 11 tcp 1040 ------- 1 2.0 7.0 6 23
- 3.111064 2 11 tcp 1040 ------- 1 2.0 7.0 6 23
+ 3.111064 2 11 tcp 1040 ------- 1 2.0 7.0 7 24
+ 3.111064 2 11 tcp 1040 ------- 1 2.0 7.0 8 25
d 3.111068 9 11 tcp 1040 ------- 1 2.0 7.0 6 23
- 3.11548 2 11 tcp 1040 ------- 1 2.0 7.0 7 24
d 3.115484 9 11 tcp 1040 ------- 1 2.0 7.0 7 24
r 3.118793 6 4 ack 40 ------- 1 7.0 2.0 5 22
h 3.118793 4 11 ack 40 ------- 1 7.0 2.0 5 22
- 3.119896 2 11 tcp 1040 ------- 1 2.0 7.0 8 25
d 3.1199 9 11 tcp 1040 ------- 1 2.0 7.0 8 25
r 3.151068 11 4 tcp 1040 ------- 1 2.0 7.0 6 23
+ 3.151068 4 6 tcp 1040 ------- 1 2.0 7.0 6 23
- 3.151068 4 6 tcp 1040 ------- 1 2.0 7.0 6 23
r 3.155484 11 4 tcp 1040 ------- 1 2.0 7.0 7 24
+ 3.155484 4 6 tcp 1040 ------- 1 2.0 7.0 7 24
+ 3.158793 4 11 ack 40 ------- 1 7.0 2.0 5 22
- 3.158793 4 11 ack 40 ------- 1 7.0 2.0 5 22
d 3.158797 9 11 ack 40 ------- 1 7.0 2.0 5 22
r 3.1599 11 4 tcp 1040 ------- 1 2.0 7.0 8 25
+ 3.1599 4 6 tcp 1040 ------- 1 2.0 7.0 8 25
- 3.167708 4 6 tcp 1040 ------- 1 2.0 7.0 7 24
- 3.184348 4 6 tcp 1040 ------- 1 2.0 7.0 8 25
r 3.198797 11 2 ack 40 ------- 1 7.0 2.0 5 22
h 3.198797 2 11 tcp 1040 ------- 1 2.0 7.0 9 26
h 3.198797 2 11 tcp 1040 ------- 1 2.0 7.0 10 27
r 3.207708 4 6 tcp 1040 ------- 1 2.0 7.0 6 23
+ 3.207708 6 7 tcp 1040 ------- 1 2.0 7.0 6 23
- 3.207708 6 7 tcp 1040 ------- 1 2.0 7.0 6 23
r 3.224348 4 6 tcp 1040 ------- 1 2.0 7.0 7 24
+ 3.224348 6 7 tcp 1040 ------- 1 2.0 7.0 7 24
- 3.235441 6 7 tcp 1040 ------- 1 2.0 7.0 7 24
+ 3.238797 2 11 tcp 1040 ------- 1 2.0 7.0 9 26
- 3.238797 2 11 tcp 1040 ------- 1 2.0 7.0 9 26
+ 3.238797 2 11 tcp 1040 ------- 1 2.0 7.0 10 27
d 3.238801 9 11 tcp 1040 ------- 1 2.0 7.0 9 26
r 3.240988 4 6 tcp 1040 ------- 1 2.0 7.0 8 25
+ 3.240988 6 7 tcp 1040 ------- 1 2.0 7.0 8 25
- 3.243213 2 11 tcp 1040 ------- 1 2.0 7.0 10 27
d 3.243217 9 11 tcp 1040 ------- 1 2.0 7.0 10 27
- 3.263175 6 7 tcp 1040 ------- 1 2.0 7.0 8 25
r 3.278801 11 4 tcp 1040 ------- 1 2.0 7.0 9 26
+ 3.278801 4 6 tcp 1040 ------- 1 2.0 7.0 9 26
- 3.278801 4 6 tcp 1040 ------- 1 2.0 7.0 9 26
r 3.283217 11 4 tcp 1040 ------- 1 2.0 7.0 10 27
+ 3.283217 4 6 tcp 1040 ------- 1 2.0 7.0 10 27
- 3.295441 4 6 tcp 1040 ------- 1 2.0 7.0 10 27
+ 3.3 1 2 cbr 1000 ------- 2 1.0 10.0 5 28
- 3.3 1 2 cbr 1000 ------- 2 1.0 10.0 5 28
r 3.314 1 2 cbr 1000 ------- 2 1.0 10.0 5 28
h 3.314 2 11 cbr 1000 ------- 2 1.0 10.0 5 28
r 3.335441 4 6 tcp 1040 ------- 1 2.0 7.0 9 26
+ 3.335441 6 7 tcp 1040 ------- 1 2.0 7.0 9 26
- 3.335441 6 7 tcp 1040 ------- 1 2.0 7.0 9 26
r 3.352081 4 6 tcp 1040 ------- 1 2.0 7.0 10 27
+ 3.352081 6 7 tcp 1040 ------- 1 2.0 7.0 10 27
+ 3.354 2 11 cbr 1000 ------- 2 1.0 10.0 5 28
- 3.354 2 11 cbr 1000 ------- 2 1.0 10.0 5 28
d 3.354004 4 11 cbr 1000 ------- 2 1.0 10.0 5 28
- 3.363175 6 7 tcp 1040 ------- 1 2.0 7.0 10 27
r 3.394004 11 9 cbr 1000 ------- 2 1.0 10.0 5 28
+ 3.394004 9 10 cbr 1000 ------- 2 1.0 10.0 5 28
- 3.394004 9 10 cbr 1000 ------- 2 1.0 10.0 5 28
r 3.435441 6 7 tcp 1040 ------- 1 2.0 7.0 6 23
r 3.440004 9 10 cbr 1000 ------- 2 1.0 10.0 5 28
r 3.463175 6 7 tcp 1040 ------- 1 2.0 7.0 7 24
+ 3.463175 7 6 ack 40 ------- 1 7.0 2.0 7 29
- 3.463175 7 6 ack 40 ------- 1 7.0 2.0 7 29
r 3.490908 6 7 tcp 1040 ------- 1 2.0 7.0 8 25
r 3.563175 6 7 tcp 1040 ------- 1 2.0 7.0 9 26
+ 3.563175 7 6 ack 40 ------- 1 7.0 2.0 9 30
- 3.563175 7 6 ack 40 ------- 1 7.0 2.0 9 30
r 3.590908 6 7 tcp 1040 ------- 1 2.0 7.0 10 27
r 3.664241 7 6 ack 40 ------- 1 7.0 2.0 7 29
+ 3.664241 6 4 ack 40 ------- 1 7.0 2.0 7 29
- 3.664241 6 4 ack 40 ------- 1 7.0 2.0 7 29
+ 3.690908 7 6 ack 40 ------- 1 7.0 2.0 10 31
- 3.690908 7 6 ack 40 ------- 1 7.0 2.0 10 31
+ 3.7 8 6 cbr 1000 ------- 3 8.0 0.0 8 32
- 3.7 8 6 cbr 1000 ------- 3 8.0 0.0 8 32
+ 3.7 8 6 cbr 500 ------- 3 8.0 0.0 9 33
r 3.704881 6 4 ack 40 ------- 1 7.0 2.0 7 29
h 3.704881 4 11 ack 40 ------- 1 7.0 2.0 7 29
- 3.726667 8 6 cbr 500 ------- 3 8.0 0.0 9 33
+ 3.744881 4 11 ack 40 ------- 1 7.0 2.0 7 29
- 3.744881 4 11 ack 40 ------- 1 7.0 2.0 7 29
d 3.744885 9 11 ack 40 ------- 1 7.0 2.0 7 29
r 3.764241 7 6 ack 40 ------- 1 7.0 2.0 9 30
+ 3.764241 6 4 ack 40 ------- 1 7.0 2.0 9 30
- 3.764241 6 4 ack 40 ------- 1 7.0 2.0 9 30
r 3.784885 11 2 ack 40 ------- 1 7.0 2.0 7 29
h 3.784885 2 11 tcp 1040 ------- 1 2.0 7.0 11 34
h 3.784885 2 11 tcp 1040 ------- 1 2.0 7.0 12 35
h 3.784885 2 11 tcp 1040 ------- 1 2.0 7.0 13 36
r 3.804881 6 4 ack 40 ------- 1 7.0 2.0 9 30
h 3.804881 4 11 ack 40 ------- 1 7.0 2.0 9 30
+ 3.824885 2 11 tcp 1040 ------- 1 2.0 7.0 11 34
- 3.824885 2 11 tcp 1040 ------- 1 2.0 7.0 11 34
+ 3.824885 2 11 tcp 1040 ------- 1 2.0 7.0 12 35
+ 3.824885 2 11 tcp 1040 ------- 1 2.0 7.0 13 36
d 3.824889 9 11 tcp 1040 ------- 1 2.0 7.0 11 34
- 3.829301 2 11 tcp 1040 ------- 1 2.0 7.0 12 35
d 3.829305 9 11 tcp 1040 ------- 1 2.0 7.0 12 35
- 3.833717 2 11 tcp 1040 ------- 1 2.0 7.0 13 36
d 3.833721 9 11 tcp 1040 ------- 1 2.0 7.0 13 36
+ 3.844881 4 11 ack 40 ------- 1 7.0 2.0 9 30
- 3.844881 4 11 ack 40 ------- 1 7.0 2.0 9 30
d 3.844885 9 11 ack 40 ------- 1 7.0 2.0 9 30
r 3.864889 11 4 tcp 1040 ------- 1 2.0 7.0 11 34
+ 3.864889 4 6 tcp 1040 ------- 1 2.0 7.0 11 34
- 3.864889 4 6 tcp 1040 ------- 1 2.0 7.0 11 34
r 3.869305 11 4 tcp 1040 ------- 1 2.0 7.0 12 35
+ 3.869305 4 6 tcp 1040 ------- 1 2.0 7.0 12 35
r 3.873721 11 4 tcp 1040 ------- 1 2.0 7.0 13 36
+ 3.873721 4 6 tcp 1040 ------- 1 2.0 7.0 13 36
- 3.881529 4 6 tcp 1040 ------- 1 2.0 7.0 12 35
r 3.884885 11 2 ack 40 ------- 1 7.0 2.0 9 30
h 3.884885 2 11 tcp 1040 ------- 1 2.0 7.0 14 37
h 3.884885 2 11 tcp 1040 ------- 1 2.0 7.0 15 38
h 3.884885 2 11 tcp 1040 ------- 1 2.0 7.0 16 39
r 3.891975 7 6 ack 40 ------- 1 7.0 2.0 10 31
+ 3.891975 6 4 ack 40 ------- 1 7.0 2.0 10 31
- 3.891975 6 4 ack 40 ------- 1 7.0 2.0 10 31
- 3.898169 4 6 tcp 1040 ------- 1 2.0 7.0 13 36
r 3.921529 4 6 tcp 1040 ------- 1 2.0 7.0 11 34
+ 3.921529 6 7 tcp 1040 ------- 1 2.0 7.0 11 34
- 3.921529 6 7 tcp 1040 ------- 1 2.0 7.0 11 34
+ 3.924885 2 11 tcp 1040 ------- 1 2.0 7.0 14 37
- 3.924885 2 11 tcp 1040 ------- 1 2.0 7.0 14 37
+ 3.924885 2 11 tcp 1040 ------- 1 2.0 7.0 15 38
+ 3.924885 2 11 tcp 1040 ------- 1 2.0 7.0 16 39
d 3.924889 9 11 tcp 1040 ------- 1 2.0 7.0 14 37
r 3.926667 8 6 cbr 1000 ------- 3 8.0 0.0 8 32
+ 3.926667 6 4 cbr 1000 ------- 3 8.0 0.0 8 32
- 3.926667 6 4 cbr 1000 ------- 3 8.0 0.0 8 32
- 3.929301 2 11 tcp 1040 ------- 1 2.0 7.0 15 38
d 3.929305 9 11 tcp 1040 ------- 1 2.0 7.0 15 38
r 3.932615 6 4 ack 40 ------- 1 7.0 2.0 10 31
h 3.932615 4 11 ack 40 ------- 1 7.0 2.0 10 31
- 3.933717 2 11 tcp 1040 ------- 1 2.0 7.0 16 39
d 3.933721 9 11 tcp 1040 ------- 1 2.0 7.0 16 39
r 3.938169 4 6 tcp 1040 ------- 1 2.0 7.0 12 35
+ 3.938169 6 7 tcp 1040 ------- 1 2.0 7.0 12 35
r 3.94 8 6 cbr 500 ------- 3 8.0 0.0 9 33
+ 3.94 6 4 cbr 500 ------- 3 8.0 0.0 9 33
- 3.942667 6 4 cbr 500 ------- 3 8.0 0.0 9 33
- 3.949263 6 7 tcp 1040 ------- 1 2.0 7.0 12 35
r 3.954809 4 6 tcp 1040 ------- 1 2.0 7.0 13 36
+ 3.954809 6 7 tcp 1040 ------- 1 2.0 7.0 13 36
r 3.964889 11 4 tcp 1040 ------- 1 2.0 7.0 14 37
+ 3.964889 4 6 tcp 1040 ------- 1 2.0 7.0 14 37
- 3.964889 4 6 tcp 1040 ------- 1 2.0 7.0 14 37
r 3.969305 11 4 tcp 1040 ------- 1 2.0 7.0 15 38
+ 3.969305 4 6 tcp 1040 ------- 1 2.0 7.0 15 38
+ 3.972615 4 11 ack 40 ------- 1 7.0 2.0 10 31
- 3.972615 4 11 ack 40 ------- 1 7.0 2.0 10 31
d 3.972619 9 11 ack 40 ------- 1 7.0 2.0 10 31
r 3.973721 11 4 tcp 1040 ------- 1 2.0 7.0 16 39
+ 3.973721 4 6 tcp 1040 ------- 1 2.0 7.0 16 39
- 3.976996 6 7 tcp 1040 ------- 1 2.0 7.0 13 36
- 3.981529 4 6 tcp 1040 ------- 1 2.0 7.0 15 38
r 3.982667 6 4 cbr 1000 ------- 3 8.0 0.0 8 32
h 3.982667 4 11 cbr 1000 ------- 3 8.0 0.0 8 32
r 3.990667 6 4 cbr 500 ------- 3 8.0 0.0 9 33
h 3.990667 4 11 cbr 500 ------- 3 8.0 0.0 9 33
- 3.998169 4 6 tcp 1040 ------- 1 2.0 7.0 16 39
r 4.012619 11 2 ack 40 ------- 1 7.0 2.0 10 31
h 4.012619 2 11 tcp 1040 ------- 1 2.0 7.0 17 40
h 4.012619 2 11 tcp 1040 ------- 1 2.0 7.0 18 41
r 4.021529 4 6 tcp 1040 ------- 1 2.0 7.0 14 37
+ 4.021529 6 7 tcp 1040 ------- 1 2.0 7.0 14 37
- 4.021529 6 7 tcp 1040 ------- 1 2.0 7.0 14 37
+ 4.022667 4 11 cbr 1000 ------- 3 8.0 0.0 8 32
- 4.022667 4 11 cbr 1000 ------- 3 8.0 0.0 8 32
d 4.022671 9 11 cbr 1000 ------- 3 8.0 0.0 8 32
+ 4.030667 4 11 cbr 500 ------- 3 8.0 0.0 9 33
- 4.030667 4 11 cbr 500 ------- 3 8.0 0.0 9 33
d 4.030671 9 11 cbr 500 ------- 3 8.0 0.0 9 33
r 4.038169 4 6 tcp 1040 ------- 1 2.0 7.0 15 38
+ 4.038169 6 7 tcp 1040 ------- 1 2.0 7.0 15 38
- 4.049263 6 7 tcp 1040 ------- 1 2.0 7.0 15 38
+ 4.052619 2 11 tcp 1040 ------- 1 2.0 7.0 17 40
- 4.052619 2 11 tcp 1040 ------- 1 2.0 7.0 17 40
+ 4.052619 2 11 tcp 1040 ------- 1 2.0 7.0 18 41
d 4.052623 9 11 tcp 1040 ------- 1 2.0 7.0 17 40
r 4.054809 4 6 tcp 1040 ------- 1 2.0 7.0 16 39
+ 4.054809 6 7 tcp 1040 ------- 1 2.0 7.0 16 39
- 4.057035 2 11 tcp 1040 ------- 1 2.0 7.0 18 41
d 4.057039 9 11 tcp 1040 ------- 1 2.0 7.0 18 41
r 4.062671 11 2 cbr 1000 ------- 3 8.0 0.0 8 32
+ 4.062671 2 1 cbr 1000 ------- 3 8.0 0.0 8 32
- 4.062671 2 1 cbr 1000 ------- 3 8.0 0.0 8 32
r 4.070671 11 2 cbr 500 ------- 3 8.0 0.0 9 33
+ 4.070671 2 1 cbr 500 ------- 3 8.0 0.0 9 33
- 4.070671 2 1 cbr 500 ------- 3 8.0 0.0 9 33
r 4.076671 2 1 cbr 1000 ------- 3 8.0 0.0 8 32
+ 4.076671 1 0 cbr 1000 ------- 3 8.0 0.0 8 32
- 4.076671 1 0 cbr 1000 ------- 3 8.0 0.0 8 32
- 4.076996 6 7 tcp 1040 ------- 1 2.0 7.0 16 39
r 4.082671 2 1 cbr 500 ------- 3 8.0 0.0 9 33
+ 4.082671 1 0 cbr 500 ------- 3 8.0 0.0 9 33
- 4.082671 1 0 cbr 500 ------- 3 8.0 0.0 9 33
r 4.090671 1 0 cbr 1000 ------- 3 8.0 0.0 8 32
r 4.092623 11 4 tcp 1040 ------- 1 2.0 7.0 17 40
+ 4.092623 4 6 tcp 1040 ------- 1 2.0 7.0 17 40
- 4.092623 4 6 tcp 1040 ------- 1 2.0 7.0 17 40
r 4.094671 1 0 cbr 500 ------- 3 8.0 0.0 9 33
r 4.097039 11 4 tcp 1040 ------- 1 2.0 7.0 18 41
+ 4.097039 4 6 tcp 1040 ------- 1 2.0 7.0 18 41
+ 4.1 1 2 cbr 1000 ------- 2 1.0 10.0 6 42
- 4.1 1 2 cbr 1000 ------- 2 1.0 10.0 6 42
- 4.109263 4 6 tcp 1040 ------- 1 2.0 7.0 18 41
r 4.114 1 2 cbr 1000 ------- 2 1.0 10.0 6 42
h 4.114 2 11 cbr 1000 ------- 2 1.0 10.0 6 42
r 4.149263 4 6 tcp 1040 ------- 1 2.0 7.0 17 40
+ 4.149263 6 7 tcp 1040 ------- 1 2.0 7.0 17 40
- 4.149263 6 7 tcp 1040 ------- 1 2.0 7.0 17 40
r 4.149263 6 7 tcp 1040 ------- 1 2.0 7.0 11 34
+ 4.154 2 11 cbr 1000 ------- 2 1.0 10.0 6 42
- 4.154 2 11 cbr 1000 ------- 2 1.0 10.0 6 42
d 4.154004 4 11 cbr 1000 ------- 2 1.0 10.0 6 42
r 4.165903 4 6 tcp 1040 ------- 1 2.0 7.0 18 41
+ 4.165903 6 7 tcp 1040 ------- 1 2.0 7.0 18 41
- 4.176996 6 7 tcp 1040 ------- 1 2.0 7.0 18 41
r 4.176996 6 7 tcp 1040 ------- 1 2.0 7.0 12 35
+ 4.176996 7 6 ack 40 ------- 1 7.0 2.0 12 43
- 4.176996 7 6 ack 40 ------- 1 7.0 2.0 12 43
r 4.194004 11 9 cbr 1000 ------- 2 1.0 10.0 6 42
+ 4.194004 9 10 cbr 1000 ------- 2 1.0 10.0 6 42
- 4.194004 9 10 cbr 1000 ------- 2 1.0 10.0 6 42
r 4.204729 6 7 tcp 1040 ------- 1 2.0 7.0 13 36
r 4.240004 9 10 cbr 1000 ------- 2 1.0 10.0 6 42
r 4.249263 6 7 tcp 1040 ------- 1 2.0 7.0 14 37
+ 4.249263 7 6 ack 40 ------- 1 7.0 2.0 14 44
- 4.249263 7 6 ack 40 ------- 1 7.0 2.0 14 44
r 4.276996 6 7 tcp 1040 ------- 1 2.0 7.0 15 38
r 4.304729 6 7 tcp 1040 ------- 1 2.0 7.0 16 39
+ 4.304729 7 6 ack 40 ------- 1 7.0 2.0 16 45
- 4.304729 7 6 ack 40 ------- 1 7.0 2.0 16 45
r 4.376996 6 7 tcp 1040 ------- 1 2.0 7.0 17 40
r 4.378063 7 6 ack 40 ------- 1 7.0 2.0 12 43
+ 4.378063 6 4 ack 40 ------- 1 7.0 2.0 12 43
- 4.378063 6 4 ack 40 ------- 1 7.0 2.0 12 43
r 4.404729 6 7 tcp 1040 ------- 1 2.0 7.0 18 41
+ 4.404729 7 6 ack 40 ------- 1 7.0 2.0 18 46
- 4.404729 7 6 ack 40 ------- 1 7.0 2.0 18 46
r 4.418703 6 4 ack 40 ------- 1 7.0 2.0 12 43
h 4.418703 4 11 ack 40 ------- 1 7.0 2.0 12 43
r 4.450329 7 6 ack 40 ------- 1 7.0 2.0 14 44
+ 4.450329 6 4 ack 40 ------- 1 7.0 2.0 14 44
- 4.450329 6 4 ack 40 ------- 1 7.0 2.0 14 44
+ 4.458703 4 11 ack 40 ------- 1 7.0 2.0 12 43
- 4.458703 4 11 ack 40 ------- 1 7.0 2.0 12 43
d 4.458707 9 11 ack 40 ------- 1 7.0 2.0 12 43
r 4.490969 6 4 ack 40 ------- 1 7.0 2.0 14 44
h 4.490969 4 11 ack 40 ------- 1 7.0 2.0 14 44
r 4.498707 11 2 ack 40 ------- 1 7.0 2.0 12 43
h 4.498707 2 11 tcp 1040 ------- 1 2.0 7.0 19 47
h 4.498707 2 11 tcp 1040 ------- 1 2.0 7.0 20 48
h 4.498707 2 11 tcp 1040 ------- 1 2.0 7.0 21 49
r 4.505796 7 6 ack 40 ------- 1 7.0 2.0 16 45
+ 4.505796 6 4 ack 40 ------- 1 7.0 2.0 16 45
- 4.505796 6 4 ack 40 ------- 1 7.0 2.0 16 45
+ 4.530969 4 11 ack 40 ------- 1 7.0 2.0 14 44
- 4.530969 4 11 ack 40 ------- 1 7.0 2.0 14 44
d 4.530973 9 11 ack 40 ------- 1 7.0 2.0 14 44
+ 4.538707 2 11 tcp 1040 ------- 1 2.0 7.0 19 47
- 4.538707 2 11 tcp 1040 ------- 1 2.0 7.0 19 47
+ 4.538707 2 11 tcp 1040 ------- 1 2.0 7.0 20 48
+ 4.538707 2 11 tcp 1040 ------- 1 2.0 7.0 21 49
d 4.538711 9 11 tcp 1040 ------- 1 2.0 7.0 19 47
- 4.543123 2 11 tcp 1040 ------- 1 2.0 7.0 20 48
d 4.543127 9 11 tcp 1040 ------- 1 2.0 7.0 20 48
r 4.546436 6 4 ack 40 ------- 1 7.0 2.0 16 45
h 4.546436 4 11 ack 40 ------- 1 7.0 2.0 16 45
- 4.547539 2 11 tcp 1040 ------- 1 2.0 7.0 21 49
d 4.547543 9 11 tcp 1040 ------- 1 2.0 7.0 21 49
r 4.570973 11 2 ack 40 ------- 1 7.0 2.0 14 44
h 4.570973 2 11 tcp 1040 ------- 1 2.0 7.0 22 50
h 4.570973 2 11 tcp 1040 ------- 1 2.0 7.0 23 51
h 4.570973 2 11 tcp 1040 ------- 1 2.0 7.0 24 52
r 4.578711 11 4 tcp 1040 ------- 1 2.0 7.0 19 47
+ 4.578711 4 6 tcp 1040 ------- 1 2.0 7.0 19 47
- 4.578711 4 6 tcp 1040 ------- 1 2.0 7.0 19 47
r 4.583127 11 4 tcp 1040 ------- 1 2.0 7.0 20 48
+ 4.583127 4 6 tcp 1040 ------- 1 2.0 7.0 20 48
+ 4.586436 4 11 ack 40 ------- 1 7.0 2.0 16 45
- 4.586436 4 11 ack 40 ------- 1 7.0 2.0 16 45
d 4.58644 9 11 ack 40 ------- 1 7.0 2.0 16 45
r 4.587543 11 4 tcp 1040 ------- 1 2.0 7.0 21 49
+ 4.587543 4 6 tcp 1040 ------- 1 2.0 7.0 21 49
- 4.595351 4 6 tcp 1040 ------- 1 2.0 7.0 20 48
r 4.605796 7 6 ack 40 ------- 1 7.0 2.0 18 46
+ 4.605796 6 4 ack 40 ------- 1 7.0 2.0 18 46
- 4.605796 6 4 ack 40 ------- 1 7.0 2.0 18 46
+ 4.610973 2 11 tcp 1040 ------- 1 2.0 7.0 22 50
- 4.610973 2 11 tcp 1040 ------- 1 2.0 7.0 22 50
+ 4.610973 2 11 tcp 1040 ------- 1 2.0 7.0 23 51
+ 4.610973 2 11 tcp 1040 ------- 1 2.0 7.0 24 52
d 4.610977 9 11 tcp 1040 ------- 1 2.0 7.0 22 50
- 4.611991 4 6 tcp 1040 ------- 1 2.0 7.0 21 49
- 4.615389 2 11 tcp 1040 ------- 1 2.0 7.0 23 51
d 4.615393 9 11 tcp 1040 ------- 1 2.0 7.0 23 51
- 4.619805 2 11 tcp 1040 ------- 1 2.0 7.0 24 52
d 4.619809 9 11 tcp 1040 ------- 1 2.0 7.0 24 52
r 4.62644 11 2 ack 40 ------- 1 7.0 2.0 16 45
h 4.62644 2 11 tcp 1040 ------- 1 2.0 7.0 25 53
h 4.62644 2 11 tcp 1040 ------- 1 2.0 7.0 26 54
h 4.62644 2 11 tcp 1040 ------- 1 2.0 7.0 27 55
r 4.635351 4 6 tcp 1040 ------- 1 2.0 7.0 19 47
+ 4.635351 6 7 tcp 1040 ------- 1 2.0 7.0 19 47
- 4.635351 6 7 tcp 1040 ------- 1 2.0 7.0 19 47
r 4.646436 6 4 ack 40 ------- 1 7.0 2.0 18 46
h 4.646436 4 11 ack 40 ------- 1 7.0 2.0 18 46
r 4.650977 11 4 tcp 1040 ------- 1 2.0 7.0 22 50
+ 4.650977 4 6 tcp 1040 ------- 1 2.0 7.0 22 50
- 4.650977 4 6 tcp 1040 ------- 1 2.0 7.0 22 50
r 4.651991 4 6 tcp 1040 ------- 1 2.0 7.0 20 48
+ 4.651991 6 7 tcp 1040 ------- 1 2.0 7.0 20 48
r 4.655393 11 4 tcp 1040 ------- 1 2.0 7.0 23 51
+ 4.655393 4 6 tcp 1040 ------- 1 2.0 7.0 23 51
r 4.659809 11 4 tcp 1040 ------- 1 2.0 7.0 24 52
+ 4.659809 4 6 tcp 1040 ------- 1 2.0 7.0 24 52
- 4.663084 6 7 tcp 1040 ------- 1 2.0 7.0 20 48
+ 4.66644 2 11 tcp 1040 ------- 1 2.0 7.0 25 53
- 4.66644 2 11 tcp 1040 ------- 1 2.0 7.0 25 53
+ 4.66644 2 11 tcp 1040 ------- 1 2.0 7.0 26 54
+ 4.66644 2 11 tcp 1040 ------- 1 2.0 7.0 27 55
d 4.666444 9 11 tcp 1040 ------- 1 2.0 7.0 25 53
- 4.667617 4 6 tcp 1040 ------- 1 2.0 7.0 23 51
r 4.668631 4 6 tcp 1040 ------- 1 2.0 7.0 21 49
+ 4.668631 6 7 tcp 1040 ------- 1 2.0 7.0 21 49
- 4.670856 2 11 tcp 1040 ------- 1 2.0 7.0 26 54
d 4.67086 9 11 tcp 1040 ------- 1 2.0 7.0 26 54
- 4.675272 2 11 tcp 1040 ------- 1 2.0 7.0 27 55
d 4.675276 9 11 tcp 1040 ------- 1 2.0 7.0 27 55
- 4.684257 4 6 tcp 1040 ------- 1 2.0 7.0 24 52
+ 4.686436 4 11 ack 40 ------- 1 7.0 2.0 18 46
- 4.686436 4 11 ack 40 ------- 1 7.0 2.0 18 46
d 4.68644 9 11 ack 40 ------- 1 7.0 2.0 18 46
- 4.690817 6 7 tcp 1040 ------- 1 2.0 7.0 21 49
r 4.706444 11 4 tcp 1040 ------- 1 2.0 7.0 25 53
+ 4.706444 4 6 tcp 1040 ------- 1 2.0 7.0 25 53
- 4.706444 4 6 tcp 1040 ------- 1 2.0 7.0 25 53